
     Program BANDS v.7.1 starts on  1Feb2023 at 10:25: 2 

     This program is part of the open-source Quantum ESPRESSO suite
     for quantum simulation of materials; please cite
         "P. Giannozzi et al., J. Phys.:Condens. Matter 21 395502 (2009);
         "P. Giannozzi et al., J. Phys.:Condens. Matter 29 465901 (2017);
         "P. Giannozzi et al., J. Chem. Phys. 152 154105 (2020);
          URL http://www.quantum-espresso.org", 
     in publications or presentations arising from this work. More details at
     http://www.quantum-espresso.org/quote

     Parallel version (MPI), running on    20 processors

     MPI processes distributed on     1 nodes
     R & G space division:  proc/nbgrp/npool/nimage =      20
     116749 MiB available memory on the printing compute node when the environment starts
 

     Reading xml data from directory:

     ./work/InAs.save/

     IMPORTANT: XC functional enforced from input :
     Exchange-correlation= PZ
                           (   1   1   0   0   0   0   0)
     Any further DFT definition will be discarded
     Please, verify this is what you really want

 
     Parallelization info
     --------------------
     sticks:   dense  smooth     PW     G-vecs:    dense   smooth      PW
     Min          69      69     19                 1690     1690     252
     Max          70      70     21                 1692     1692     254
     Sum        1381    1381    385                33823    33823    5065
 
     Using Slab Decomposition
 
     Reading collected, re-writing distributed wavefunctions
     high-symmetry point:  0.0000 0.0000 0.0000   x coordinate   0.0000
     high-symmetry point: -1.0000 0.0000 0.0000   x coordinate   1.0000
     high-symmetry point: -1.0000 0.5000 0.0000   x coordinate   1.5000
     high-symmetry point: -0.7500 0.7500 0.0000   x coordinate   1.8536
     high-symmetry point:  0.0000 0.0000 0.0000   x coordinate   2.9142
     high-symmetry point: -0.5000 0.5000 0.5000   x coordinate   3.7802
     high-symmetry point: -1.0000 0.2500 0.2500   x coordinate   4.3926
     high-symmetry point: -1.0000 0.5000 0.0000   x coordinate   4.7462
     high-symmetry point: -0.5000 0.5000 0.5000   x coordinate   5.4533
     high-symmetry point: -0.7500 0.7500 0.0000   x coordinate   6.0656

     Plottable bands (eV) written to file InAs.bands.gnu
     Bands written to file InAs.bands

 **************************************************************************

                    xk=(   0.00000,   0.00000,   0.00000  )

     point group T_d (-43m) 
     there are  5 classes
     the character table:

       E     8C3   3C2   6S4   6s_d 
A_1    1.00  1.00  1.00  1.00  1.00
A_2    1.00  1.00  1.00 -1.00 -1.00
E      2.00 -1.00  2.00  0.00  0.00
T_1    3.00  0.00 -1.00  1.00 -1.00
T_2    3.00  0.00 -1.00 -1.00  1.00

     the symmetry operations in each class and the name of the first element:

     E        1
                                                                 
     8C3      5    7    8    6   12    9   10   11
                                                                 
     3C2      2    3    4
                                                                 
     6S4     15   16   20   19   23   24
                                                                 
     6s_d    13   14   17   18   21   22
                                                                 

     Band symmetry, T_d (-43m)  point group:

     e(  1 -  1) =     -7.99894  eV     1   --> A_1  G_1  P_1  
     e(  2 -  4) =      4.21140  eV     3   --> T_2  G_15 P_4  
     e(  5 -  5) =      4.42049  eV     1   --> A_1  G_1  P_1  
     e(  6 -  8) =      8.24804  eV     3   --> T_2  G_15 P_4  
     e(  9 -  9) =     12.01972  eV     1   --> A_1  G_1  P_1  
     e( 10 - 11) =     14.13403  eV     2   --> E    G_12 P_3  
     e( 12 - 14) =     15.12283  eV     3   --> T_2  G_15 P_4  
     e( 15 - 15) =     17.54559  eV     1   --> A_1  G_1  P_1  
     e( 16 - 18) =     28.00029  eV     3   --> T_2  G_15 P_4  
     e( 19 - 21) =     28.59853  eV     3   --> T_2  G_15 P_4  
     e( 22 - 24) =     29.72287  eV     3   --> T_1  G_25 P_5  
     e( 25 - 26) =     29.84246  eV     2   --> E    G_12 P_3  
     e( 27 - 27) =     36.13990  eV     1   --> A_1  G_1  P_1  
     e( 28 - 30) =     40.19632  eV     3   --> T_2  G_15 P_4  
     e( 31 - 32) =     40.58994  eV     2   --> E    G_12 P_3  

 **************************************************************************

 **************************************************************************

                    xk=(  -0.01667,   0.00000,   0.00000  )

     point group C_2v (mm2) 
     there are  4 classes
     the character table:

       E     C2    s_v   s_v' 
A_1    1.00  1.00  1.00  1.00
A_2    1.00  1.00 -1.00 -1.00
B_1    1.00 -1.00  1.00 -1.00
B_2    1.00 -1.00 -1.00  1.00

     the symmetry operations in each class and the name of the first element:

     E        1
                                                                 
     C2       2
                                                                 
     s_v      3
                                                                 
     s_v'     4
                                                                 

     Band symmetry, C_2v (mm2)  point group:

     e(  1 -  1) =     -7.99805  eV     1   --> A_1  D_1  S_1  
     e(  2 -  2) =      4.14370  eV     1   --> A_1  D_1  S_1  
     e(  3 -  4) =      4.20820  eV     2   --> B_1  D_3  S_3  
     e(  3 -  4) =      4.20820  eV     2   --> B_2  D_4  S_4  
     e(  5 -  5) =      4.48825  eV     1   --> A_1  D_1  S_1  
     e(  6 -  6) =      8.24360  eV     1   --> A_1  D_1  S_1  
     e(  7 -  8) =      8.25241  eV     2   --> B_1  D_3  S_3  
     e(  7 -  8) =      8.25241  eV     2   --> B_2  D_4  S_4  
     e(  9 -  9) =     12.02641  eV     1   --> A_1  D_1  S_1  
     e( 10 - 10) =     14.10390  eV     1   --> A_1  D_1  S_1  
     e( 11 - 11) =     14.13500  eV     1   --> A_2  D_2  S_2  
     e( 12 - 13) =     15.12509  eV     2   --> B_1  D_3  S_3  
     e( 12 - 13) =     15.12509  eV     2   --> B_2  D_4  S_4  
     e( 14 - 14) =     15.14744  eV     1   --> A_1  D_1  S_1  
     e( 15 - 15) =     17.55685  eV     1   --> A_1  D_1  S_1  
     e( 16 - 17) =     27.94230  eV     2   --> B_1  D_3  S_3  
     e( 16 - 17) =     27.94230  eV     2   --> B_2  D_4  S_4  
     e( 18 - 18) =     27.98139  eV     1   --> A_1  D_1  S_1  
     e( 19 - 19) =     28.59939  eV     1   --> A_1  D_1  S_1  
     e( 20 - 21) =     28.62850  eV     2   --> B_1  D_3  S_3  
     e( 20 - 21) =     28.62850  eV     2   --> B_2  D_4  S_4  
     e( 22 - 22) =     29.51780  eV     1   --> A_2  D_2  S_2  
     e( 23 - 24) =     29.75367  eV     2   --> B_1  D_3  S_3  
     e( 23 - 24) =     29.75367  eV     2   --> B_2  D_4  S_4  
     e( 25 - 25) =     29.85745  eV     1   --> A_1  D_1  S_1  
     e( 26 - 26) =     30.04957  eV     1   --> A_2  D_2  S_2  
     e( 27 - 27) =     36.14322  eV     1   --> A_1  D_1  S_1  
     e( 28 - 29) =     40.14749  eV     2   --> B_1  D_3  S_3  
     e( 28 - 29) =     40.14749  eV     2   --> B_2  D_4  S_4  
     e( 30 - 30) =     40.18437  eV     1   --> A_1  D_1  S_1  
     e( 31 - 31) =     40.41542  eV     1   --> A_1  D_1  S_1  
     e( 32 - 32) =     40.58413  eV     1   --> A_2  D_2  S_2  

 **************************************************************************

 **************************************************************************

                    xk=(  -0.03333,   0.00000,   0.00000  )

     Band symmetry, C_2v (mm2)  point group:

     e(  1 -  1) =     -7.99537  eV     1   --> A_1  D_1  S_1  
     e(  2 -  2) =      4.02302  eV     1   --> A_1  D_1  S_1  
     e(  3 -  4) =      4.19868  eV     2   --> B_1  D_3  S_3  
     e(  3 -  4) =      4.19868  eV     2   --> B_2  D_4  S_4  
     e(  5 -  5) =      4.60913  eV     1   --> A_1  D_1  S_1  
     e(  6 -  6) =      8.23036  eV     1   --> A_1  D_1  S_1  
     e(  7 -  8) =      8.26546  eV     2   --> B_1  D_3  S_3  
     e(  7 -  8) =      8.26546  eV     2   --> B_2  D_4  S_4  
     e(  9 -  9) =     12.04635  eV     1   --> A_1  D_1  S_1  
     e( 10 - 10) =     14.02179  eV     1   --> A_1  D_1  S_1  
     e( 11 - 11) =     14.13791  eV     1   --> A_2  D_2  S_2  
     e( 12 - 13) =     15.13186  eV     2   --> B_1  D_3  S_3  
     e( 12 - 13) =     15.13186  eV     2   --> B_2  D_4  S_4  
     e( 14 - 14) =     15.21298  eV     1   --> A_1  D_1  S_1  
     e( 15 - 15) =     17.59064  eV     1   --> A_1  D_1  S_1  
     e( 16 - 17) =     27.79885  eV     2   --> B_1  D_3  S_3  
     e( 16 - 17) =     27.79885  eV     2   --> B_2  D_4  S_4  
     e( 18 - 18) =     27.92654  eV     1   --> A_1  D_1  S_1  
     e( 19 - 19) =     28.60200  eV     1   --> A_1  D_1  S_1  
     e( 20 - 21) =     28.69065  eV     2   --> B_1  D_3  S_3  
     e( 20 - 21) =     28.69065  eV     2   --> B_2  D_4  S_4  
     e( 22 - 22) =     29.26518  eV     1   --> A_2  D_2  S_2  
     e( 23 - 24) =     29.84331  eV     2   --> B_1  D_3  S_3  
     e( 23 - 24) =     29.84331  eV     2   --> B_2  D_4  S_4  
     e( 25 - 25) =     29.90057  eV     1   --> A_1  D_1  S_1  
     e( 26 - 26) =     30.30830  eV     1   --> A_2  D_2  S_2  
     e( 27 - 27) =     36.15302  eV     1   --> A_1  D_1  S_1  
     e( 28 - 29) =     40.01992  eV     2   --> B_1  D_3  S_3  
     e( 28 - 29) =     40.01992  eV     2   --> B_2  D_4  S_4  
     e( 30 - 30) =     40.11636  eV     1   --> A_1  D_1  S_1  
     e( 31 - 31) =     40.16353  eV     1   --> A_1  D_1  S_1  
     e( 32 - 32) =     40.56692  eV     1   --> A_2  D_2  S_2  

 **************************************************************************

 **************************************************************************

                    xk=(  -0.05000,   0.00000,   0.00000  )

     Band symmetry, C_2v (mm2)  point group:

     e(  1 -  1) =     -7.99091  eV     1   --> A_1  D_1  S_1  
     e(  2 -  2) =      3.89265  eV     1   --> A_1  D_1  S_1  
     e(  3 -  4) =      4.18295  eV     2   --> B_1  D_3  S_3  
     e(  3 -  4) =      4.18295  eV     2   --> B_2  D_4  S_4  
     e(  5 -  5) =      4.73980  eV     1   --> A_1  D_1  S_1  
     e(  6 -  6) =      8.20864  eV     1   --> A_1  D_1  S_1  
     e(  7 -  8) =      8.28705  eV     2   --> B_1  D_3  S_3  
     e(  7 -  8) =      8.28705  eV     2   --> B_2  D_4  S_4  
     e(  9 -  9) =     12.07919  eV     1   --> A_1  D_1  S_1  
     e( 10 - 10) =     13.90428  eV     1   --> A_1  D_1  S_1  
     e( 11 - 11) =     14.14275  eV     1   --> A_2  D_2  S_2  
     e( 12 - 13) =     15.14314  eV     2   --> B_1  D_3  S_3  
     e( 12 - 13) =     15.14314  eV     2   --> B_2  D_4  S_4  
     e( 14 - 14) =     15.30298  eV     1   --> A_1  D_1  S_1  
     e( 15 - 15) =     17.64696  eV     1   --> A_1  D_1  S_1  
     e( 16 - 17) =     27.61132  eV     2   --> B_1  D_3  S_3  
     e( 16 - 17) =     27.61132  eV     2   --> B_2  D_4  S_4  
     e( 18 - 18) =     27.84044  eV     1   --> A_1  D_1  S_1  
     e( 19 - 19) =     28.60637  eV     1   --> A_1  D_1  S_1  
     e( 20 - 21) =     28.75169  eV     2   --> B_1  D_3  S_3  
     e( 20 - 21) =     28.75169  eV     2   --> B_2  D_4  S_4  
     e( 22 - 22) =     29.01242  eV     1   --> A_2  D_2  S_2  
     e( 23 - 23) =     29.96712  eV     1   --> A_1  D_1  S_1  
     e( 24 - 25) =     29.98371  eV     2   --> B_1  D_3  S_3  
     e( 24 - 25) =     29.98371  eV     2   --> B_2  D_4  S_4  
     e( 26 - 26) =     30.57123  eV     1   --> A_2  D_2  S_2  
     e( 27 - 27) =     36.16882  eV     1   --> A_1  D_1  S_1  
     e( 28 - 28) =     39.81635  eV     1   --> A_1  D_1  S_1  
     e( 29 - 30) =     39.84285  eV     2   --> B_1  D_3  S_3  
     e( 29 - 30) =     39.84285  eV     2   --> B_2  D_4  S_4  
     e( 31 - 31) =     40.10129  eV     1   --> A_1  D_1  S_1  
     e( 32 - 32) =     40.53895  eV     1   --> A_2  D_2  S_2  

 **************************************************************************

 **************************************************************************

                    xk=(  -0.06667,   0.00000,   0.00000  )

     Band symmetry, C_2v (mm2)  point group:

     e(  1 -  1) =     -7.98467  eV     1   --> A_1  D_1  S_1  
     e(  2 -  2) =      3.75955  eV     1   --> A_1  D_1  S_1  
     e(  3 -  4) =      4.16125  eV     2   --> B_1  D_3  S_3  
     e(  3 -  4) =      4.16125  eV     2   --> B_2  D_4  S_4  
     e(  5 -  5) =      4.87324  eV     1   --> A_1  D_1  S_1  
     e(  6 -  6) =      8.17890  eV     1   --> A_1  D_1  S_1  
     e(  7 -  8) =      8.31696  eV     2   --> B_1  D_3  S_3  
     e(  7 -  8) =      8.31696  eV     2   --> B_2  D_4  S_4  
     e(  9 -  9) =     12.12433  eV     1   --> A_1  D_1  S_1  
     e( 10 - 10) =     13.76540  eV     1   --> A_1  D_1  S_1  
     e( 11 - 11) =     14.14953  eV     1   --> A_2  D_2  S_2  
     e( 12 - 13) =     15.15894  eV     2   --> B_1  D_3  S_3  
     e( 12 - 13) =     15.15894  eV     2   --> B_2  D_4  S_4  
     e( 14 - 14) =     15.40367  eV     1   --> A_1  D_1  S_1  
     e( 15 - 15) =     17.72569  eV     1   --> A_1  D_1  S_1  
     e( 16 - 17) =     27.40124  eV     2   --> B_1  D_3  S_3  
     e( 16 - 17) =     27.40124  eV     2   --> B_2  D_4  S_4  
     e( 18 - 18) =     27.72889  eV     1   --> A_1  D_1  S_1  
     e( 19 - 19) =     28.61253  eV     1   --> A_1  D_1  S_1  
     e( 20 - 20) =     28.76122  eV     1   --> A_2  D_2  S_2  
     e( 21 - 22) =     28.80139  eV     2   --> B_1  D_3  S_3  
     e( 21 - 22) =     28.80139  eV     2   --> B_2  D_4  S_4  
     e( 23 - 23) =     30.05133  eV     1   --> A_1  D_1  S_1  
     e( 24 - 25) =     30.16355  eV     2   --> B_1  D_3  S_3  
     e( 24 - 25) =     30.16355  eV     2   --> B_2  D_4  S_4  
     e( 26 - 26) =     30.83666  eV     1   --> A_2  D_2  S_2  
     e( 27 - 27) =     36.18973  eV     1   --> A_1  D_1  S_1  
     e( 28 - 28) =     39.49881  eV     1   --> A_1  D_1  S_1  
     e( 29 - 30) =     39.63374  eV     2   --> B_1  D_3  S_3  
     e( 29 - 30) =     39.63374  eV     2   --> B_2  D_4  S_4  
     e( 31 - 31) =     40.03083  eV     1   --> A_1  D_1  S_1  
     e( 32 - 32) =     40.50118  eV     1   --> A_2  D_2  S_2  

 **************************************************************************

 **************************************************************************

                    xk=(  -0.08333,   0.00000,   0.00000  )

     Band symmetry, C_2v (mm2)  point group:

     e(  1 -  1) =     -7.97665  eV     1   --> A_1  D_1  S_1  
     e(  2 -  2) =      3.62550  eV     1   --> A_1  D_1  S_1  
     e(  3 -  4) =      4.13387  eV     2   --> B_1  D_3  S_3  
     e(  3 -  4) =      4.13387  eV     2   --> B_2  D_4  S_4  
     e(  5 -  5) =      5.00761  eV     1   --> A_1  D_1  S_1  
     e(  6 -  6) =      8.14174  eV     1   --> A_1  D_1  S_1  
     e(  7 -  8) =      8.35488  eV     2   --> B_1  D_3  S_3  
     e(  7 -  8) =      8.35488  eV     2   --> B_2  D_4  S_4  
     e(  9 -  9) =     12.18094  eV     1   --> A_1  D_1  S_1  
     e( 10 - 10) =     13.61439  eV     1   --> A_1  D_1  S_1  
     e( 11 - 11) =     14.15824  eV     1   --> A_2  D_2  S_2  
     e( 12 - 13) =     15.17925  eV     2   --> B_1  D_3  S_3  
     e( 12 - 13) =     15.17925  eV     2   --> B_2  D_4  S_4  
     e( 14 - 14) =     15.50647  eV     1   --> A_1  D_1  S_1  
     e( 15 - 15) =     17.82648  eV     1   --> A_1  D_1  S_1  
     e( 16 - 17) =     27.17874  eV     2   --> B_1  D_3  S_3  
     e( 16 - 17) =     27.17874  eV     2   --> B_2  D_4  S_4  
     e( 18 - 18) =     27.59741  eV     1   --> A_1  D_1  S_1  
     e( 19 - 19) =     28.51193  eV     1   --> A_2  D_2  S_2  
     e( 20 - 20) =     28.62048  eV     1   --> A_1  D_1  S_1  
     e( 21 - 22) =     28.84061  eV     2   --> B_1  D_3  S_3  
     e( 21 - 22) =     28.84061  eV     2   --> B_2  D_4  S_4  
     e( 23 - 23) =     30.14774  eV     1   --> A_1  D_1  S_1  
     e( 24 - 25) =     30.37184  eV     2   --> B_1  D_3  S_3  
     e( 24 - 25) =     30.37184  eV     2   --> B_2  D_4  S_4  
     e( 26 - 26) =     31.10421  eV     1   --> A_2  D_2  S_2  
     e( 27 - 27) =     36.21433  eV     1   --> A_1  D_1  S_1  
     e( 28 - 28) =     39.17784  eV     1   --> A_1  D_1  S_1  
     e( 29 - 30) =     39.40130  eV     2   --> B_1  D_3  S_3  
     e( 29 - 30) =     39.40130  eV     2   --> B_2  D_4  S_4  
     e( 31 - 31) =     39.94706  eV     1   --> A_1  D_1  S_1  
     e( 32 - 32) =     40.45479  eV     1   --> A_2  D_2  S_2  

 **************************************************************************

 **************************************************************************

                    xk=(  -0.10000,   0.00000,   0.00000  )

     Band symmetry, C_2v (mm2)  point group:

     e(  1 -  1) =     -7.96686  eV     1   --> A_1  D_1  S_1  
     e(  2 -  2) =      3.49115  eV     1   --> A_1  D_1  S_1  
     e(  3 -  4) =      4.10117  eV     2   --> B_1  D_3  S_3  
     e(  3 -  4) =      4.10117  eV     2   --> B_2  D_4  S_4  
     e(  5 -  5) =      5.14217  eV     1   --> A_1  D_1  S_1  
     e(  6 -  6) =      8.09786  eV     1   --> A_1  D_1  S_1  
     e(  7 -  8) =      8.40047  eV     2   --> B_1  D_3  S_3  
     e(  7 -  8) =      8.40047  eV     2   --> B_2  D_4  S_4  
     e(  9 -  9) =     12.24788  eV     1   --> A_1  D_1  S_1  
     e( 10 - 10) =     13.45723  eV     1   --> A_1  D_1  S_1  
     e( 11 - 11) =     14.16889  eV     1   --> A_2  D_2  S_2  
     e( 12 - 13) =     15.20408  eV     2   --> B_1  D_3  S_3  
     e( 12 - 13) =     15.20408  eV     2   --> B_2  D_4  S_4  
     e( 14 - 14) =     15.60664  eV     1   --> A_1  D_1  S_1  
     e( 15 - 15) =     17.94861  eV     1   --> A_1  D_1  S_1  
     e( 16 - 17) =     26.94902  eV     2   --> B_1  D_3  S_3  
     e( 16 - 17) =     26.94902  eV     2   --> B_2  D_4  S_4  
     e( 18 - 18) =     27.45055  eV     1   --> A_1  D_1  S_1  
     e( 19 - 19) =     28.26468  eV     1   --> A_2  D_2  S_2  
     e( 20 - 20) =     28.63022  eV     1   --> A_1  D_1  S_1  
     e( 21 - 22) =     28.87264  eV     2   --> B_1  D_3  S_3  
     e( 21 - 22) =     28.87264  eV     2   --> B_2  D_4  S_4  
     e( 23 - 23) =     30.25190  eV     1   --> A_1  D_1  S_1  
     e( 24 - 25) =     30.60005  eV     2   --> B_1  D_3  S_3  
     e( 24 - 25) =     30.60005  eV     2   --> B_2  D_4  S_4  
     e( 26 - 26) =     31.37371  eV     1   --> A_2  D_2  S_2  
     e( 27 - 27) =     36.24043  eV     1   --> A_1  D_1  S_1  
     e( 28 - 28) =     38.85798  eV     1   --> A_1  D_1  S_1  
     e( 29 - 30) =     39.15036  eV     2   --> B_1  D_3  S_3  
     e( 29 - 30) =     39.15036  eV     2   --> B_2  D_4  S_4  
     e( 31 - 31) =     39.85260  eV     1   --> A_1  D_1  S_1  
     e( 32 - 32) =     40.40105  eV     1   --> A_2  D_2  S_2  

 **************************************************************************

 **************************************************************************

                    xk=(  -0.11667,   0.00000,   0.00000  )

     Band symmetry, C_2v (mm2)  point group:

     e(  1 -  1) =     -7.95530  eV     1   --> A_1  D_1  S_1  
     e(  2 -  2) =      3.35681  eV     1   --> A_1  D_1  S_1  
     e(  3 -  4) =      4.06354  eV     2   --> B_1  D_3  S_3  
     e(  3 -  4) =      4.06354  eV     2   --> B_2  D_4  S_4  
     e(  5 -  5) =      5.27647  eV     1   --> A_1  D_1  S_1  
     e(  6 -  6) =      8.04801  eV     1   --> A_1  D_1  S_1  
     e(  7 -  8) =      8.45331  eV     2   --> B_1  D_3  S_3  
     e(  7 -  8) =      8.45331  eV     2   --> B_2  D_4  S_4  
     e(  9 -  9) =     12.32352  eV     1   --> A_1  D_1  S_1  
     e( 10 - 10) =     13.29828  eV     1   --> A_1  D_1  S_1  
     e( 11 - 11) =     14.18147  eV     1   --> A_2  D_2  S_2  
     e( 12 - 13) =     15.23343  eV     2   --> B_1  D_3  S_3  
     e( 12 - 13) =     15.23343  eV     2   --> B_2  D_4  S_4  
     e( 14 - 14) =     15.70188  eV     1   --> A_1  D_1  S_1  
     e( 15 - 15) =     18.09098  eV     1   --> A_1  D_1  S_1  
     e( 16 - 17) =     26.71503  eV     2   --> B_1  D_3  S_3  
     e( 16 - 17) =     26.71503  eV     2   --> B_2  D_4  S_4  
     e( 18 - 18) =     27.29185  eV     1   --> A_1  D_1  S_1  
     e( 19 - 19) =     28.01955  eV     1   --> A_2  D_2  S_2  
     e( 20 - 20) =     28.64175  eV     1   --> A_1  D_1  S_1  
     e( 21 - 22) =     28.90037  eV     2   --> B_1  D_3  S_3  
     e( 21 - 22) =     28.90037  eV     2   --> B_2  D_4  S_4  
     e( 23 - 23) =     30.36038  eV     1   --> A_1  D_1  S_1  
     e( 24 - 25) =     30.84235  eV     2   --> B_1  D_3  S_3  
     e( 24 - 25) =     30.84235  eV     2   --> B_2  D_4  S_4  
     e( 26 - 26) =     31.64506  eV     1   --> A_2  D_2  S_2  
     e( 27 - 27) =     36.26464  eV     1   --> A_1  D_1  S_1  
     e( 28 - 28) =     38.54343  eV     1   --> A_1  D_1  S_1  
     e( 29 - 30) =     38.88411  eV     2   --> B_1  D_3  S_3  
     e( 29 - 30) =     38.88411  eV     2   --> B_2  D_4  S_4  
     e( 31 - 31) =     39.74991  eV     1   --> A_1  D_1  S_1  
     e( 32 - 32) =     40.34122  eV     1   --> A_2  D_2  S_2  

 **************************************************************************

 **************************************************************************

                    xk=(  -0.13333,   0.00000,   0.00000  )

     Band symmetry, C_2v (mm2)  point group:

     e(  1 -  1) =     -7.94198  eV     1   --> A_1  D_1  S_1  
     e(  2 -  2) =      3.22263  eV     1   --> A_1  D_1  S_1  
     e(  3 -  4) =      4.02141  eV     2   --> B_1  D_3  S_3  
     e(  3 -  4) =      4.02141  eV     2   --> B_2  D_4  S_4  
     e(  5 -  5) =      5.41022  eV     1   --> A_1  D_1  S_1  
     e(  6 -  6) =      7.99296  eV     1   --> A_1  D_1  S_1  
     e(  7 -  8) =      8.51297  eV     2   --> B_1  D_3  S_3  
     e(  7 -  8) =      8.51297  eV     2   --> B_2  D_4  S_4  
     e(  9 -  9) =     12.40499  eV     1   --> A_1  D_1  S_1  
     e( 10 - 10) =     13.14201  eV     1   --> A_1  D_1  S_1  
     e( 11 - 11) =     14.19599  eV     1   --> A_2  D_2  S_2  
     e( 12 - 13) =     15.26730  eV     2   --> B_1  D_3  S_3  
     e( 12 - 13) =     15.26730  eV     2   --> B_2  D_4  S_4  
     e( 14 - 14) =     15.79141  eV     1   --> A_1  D_1  S_1  
     e( 15 - 15) =     18.25216  eV     1   --> A_1  D_1  S_1  
     e( 16 - 17) =     26.47860  eV     2   --> B_1  D_3  S_3  
     e( 16 - 17) =     26.47860  eV     2   --> B_2  D_4  S_4  
     e( 18 - 18) =     27.12397  eV     1   --> A_1  D_1  S_1  
     e( 19 - 19) =     27.77659  eV     1   --> A_2  D_2  S_2  
     e( 20 - 20) =     28.65507  eV     1   --> A_1  D_1  S_1  
     e( 21 - 22) =     28.92583  eV     2   --> B_1  D_3  S_3  
     e( 21 - 22) =     28.92583  eV     2   --> B_2  D_4  S_4  
     e( 23 - 23) =     30.47066  eV     1   --> A_1  D_1  S_1  
     e( 24 - 25) =     31.09487  eV     2   --> B_1  D_3  S_3  
     e( 24 - 25) =     31.09487  eV     2   --> B_2  D_4  S_4  
     e( 26 - 26) =     31.91818  eV     1   --> A_2  D_2  S_2  
     e( 27 - 27) =     36.28163  eV     1   --> A_1  D_1  S_1  
     e( 28 - 28) =     38.23938  eV     1   --> A_1  D_1  S_1  
     e( 29 - 30) =     38.60503  eV     2   --> B_1  D_3  S_3  
     e( 29 - 30) =     38.60503  eV     2   --> B_2  D_4  S_4  
     e( 31 - 31) =     39.64099  eV     1   --> A_1  D_1  S_1  
     e( 32 - 32) =     40.27652  eV     1   --> A_2  D_2  S_2  

 **************************************************************************

 **************************************************************************

                    xk=(  -0.15000,   0.00000,   0.00000  )

     Band symmetry, C_2v (mm2)  point group:

     e(  1 -  1) =     -7.92692  eV     1   --> A_1  D_1  S_1  
     e(  2 -  2) =      3.08875  eV     1   --> A_1  D_1  S_1  
     e(  3 -  4) =      3.97522  eV     2   --> B_1  D_3  S_3  
     e(  3 -  4) =      3.97522  eV     2   --> B_2  D_4  S_4  
     e(  5 -  5) =      5.54312  eV     1   --> A_1  D_1  S_1  
     e(  6 -  6) =      7.93346  eV     1   --> A_1  D_1  S_1  
     e(  7 -  8) =      8.57902  eV     2   --> B_1  D_3  S_3  
     e(  7 -  8) =      8.57902  eV     2   --> B_2  D_4  S_4  
     e(  9 -  9) =     12.48540  eV     1   --> A_1  D_1  S_1  
     e( 10 - 10) =     12.99623  eV     1   --> A_1  D_1  S_1  
     e( 11 - 11) =     14.21244  eV     1   --> A_2  D_2  S_2  
     e( 12 - 13) =     15.30570  eV     2   --> B_1  D_3  S_3  
     e( 12 - 13) =     15.30570  eV     2   --> B_2  D_4  S_4  
     e( 14 - 14) =     15.87538  eV     1   --> A_1  D_1  S_1  
     e( 15 - 15) =     18.43048  eV     1   --> A_1  D_1  S_1  
     e( 16 - 17) =     26.24087  eV     2   --> B_1  D_3  S_3  
     e( 16 - 17) =     26.24087  eV     2   --> B_2  D_4  S_4  
     e( 18 - 18) =     26.94892  eV     1   --> A_1  D_1  S_1  
     e( 19 - 19) =     27.53581  eV     1   --> A_2  D_2  S_2  
     e( 20 - 20) =     28.67015  eV     1   --> A_1  D_1  S_1  
     e( 21 - 22) =     28.95034  eV     2   --> B_1  D_3  S_3  
     e( 21 - 22) =     28.95034  eV     2   --> B_2  D_4  S_4  
     e( 23 - 23) =     30.58089  eV     1   --> A_1  D_1  S_1  
     e( 24 - 25) =     31.35508  eV     2   --> B_1  D_3  S_3  
     e( 24 - 25) =     31.35508  eV     2   --> B_2  D_4  S_4  
     e( 26 - 26) =     32.19297  eV     1   --> A_2  D_2  S_2  
     e( 27 - 27) =     36.28299  eV     1   --> A_1  D_1  S_1  
     e( 28 - 28) =     37.95330  eV     1   --> A_1  D_1  S_1  
     e( 29 - 30) =     38.31523  eV     2   --> B_1  D_3  S_3  
     e( 29 - 30) =     38.31523  eV     2   --> B_2  D_4  S_4  
     e( 31 - 31) =     39.52741  eV     1   --> A_1  D_1  S_1  
     e( 32 - 32) =     40.20806  eV     1   --> A_2  D_2  S_2  

 **************************************************************************

 **************************************************************************

                    xk=(  -0.16667,   0.00000,   0.00000  )

     Band symmetry, C_2v (mm2)  point group:

     e(  1 -  1) =     -7.91011  eV     1   --> A_1  D_1  S_1  
     e(  2 -  2) =      2.95521  eV     1   --> A_1  D_1  S_1  
     e(  3 -  4) =      3.92541  eV     2   --> B_1  D_3  S_3  
     e(  3 -  4) =      3.92541  eV     2   --> B_2  D_4  S_4  
     e(  5 -  5) =      5.67489  eV     1   --> A_1  D_1  S_1  
     e(  6 -  6) =      7.87022  eV     1   --> A_1  D_1  S_1  
     e(  7 -  8) =      8.65098  eV     2   --> B_1  D_3  S_3  
     e(  7 -  8) =      8.65098  eV     2   --> B_2  D_4  S_4  
     e(  9 -  9) =     12.54137  eV     1   --> A_1  D_1  S_1  
     e( 10 - 10) =     12.88487  eV     1   --> A_1  D_1  S_1  
     e( 11 - 11) =     14.23081  eV     1   --> A_2  D_2  S_2  
     e( 12 - 13) =     15.34863  eV     2   --> B_1  D_3  S_3  
     e( 12 - 13) =     15.34863  eV     2   --> B_2  D_4  S_4  
     e( 14 - 14) =     15.95443  eV     1   --> A_1  D_1  S_1  
     e( 15 - 15) =     18.62420  eV     1   --> A_1  D_1  S_1  
     e( 16 - 17) =     26.00265  eV     2   --> B_1  D_3  S_3  
     e( 16 - 17) =     26.00265  eV     2   --> B_2  D_4  S_4  
     e( 18 - 18) =     26.76824  eV     1   --> A_1  D_1  S_1  
     e( 19 - 19) =     27.29725  eV     1   --> A_2  D_2  S_2  
     e( 20 - 20) =     28.68701  eV     1   --> A_1  D_1  S_1  
     e( 21 - 22) =     28.97477  eV     2   --> B_1  D_3  S_3  
     e( 21 - 22) =     28.97477  eV     2   --> B_2  D_4  S_4  
     e( 23 - 23) =     30.68972  eV     1   --> A_1  D_1  S_1  
     e( 24 - 25) =     31.62131  eV     2   --> B_1  D_3  S_3  
     e( 24 - 25) =     31.62131  eV     2   --> B_2  D_4  S_4  
     e( 26 - 26) =     32.46934  eV     1   --> A_2  D_2  S_2  
     e( 27 - 27) =     36.25582  eV     1   --> A_1  D_1  S_1  
     e( 28 - 28) =     37.69629  eV     1   --> A_1  D_1  S_1  
     e( 29 - 30) =     38.01656  eV     2   --> B_1  D_3  S_3  
     e( 29 - 30) =     38.01656  eV     2   --> B_2  D_4  S_4  
     e( 31 - 31) =     39.41018  eV     1   --> A_1  D_1  S_1  
     e( 32 - 32) =     40.13683  eV     1   --> A_2  D_2  S_2  

 **************************************************************************

 **************************************************************************

                    xk=(  -0.18333,   0.00000,   0.00000  )

     Band symmetry, C_2v (mm2)  point group:

     e(  1 -  1) =     -7.89158  eV     1   --> A_1  D_1  S_1  
     e(  2 -  2) =      2.82208  eV     1   --> A_1  D_1  S_1  
     e(  3 -  4) =      3.87242  eV     2   --> B_1  D_3  S_3  
     e(  3 -  4) =      3.87242  eV     2   --> B_2  D_4  S_4  
     e(  5 -  5) =      5.80523  eV     1   --> A_1  D_1  S_1  
     e(  6 -  6) =      7.80391  eV     1   --> A_1  D_1  S_1  
     e(  7 -  8) =      8.72844  eV     2   --> B_1  D_3  S_3  
     e(  7 -  8) =      8.72844  eV     2   --> B_2  D_4  S_4  
     e(  9 -  9) =     12.51396  eV     1   --> A_1  D_1  S_1  
     e( 10 - 10) =     12.86721  eV     1   --> A_1  D_1  S_1  
     e( 11 - 11) =     14.25112  eV     1   --> A_2  D_2  S_2  
     e( 12 - 13) =     15.39609  eV     2   --> B_1  D_3  S_3  
     e( 12 - 13) =     15.39609  eV     2   --> B_2  D_4  S_4  
     e( 14 - 14) =     16.02948  eV     1   --> A_1  D_1  S_1  
     e( 15 - 15) =     18.83161  eV     1   --> A_1  D_1  S_1  
     e( 16 - 17) =     25.76447  eV     2   --> B_1  D_3  S_3  
     e( 16 - 17) =     25.76447  eV     2   --> B_2  D_4  S_4  
     e( 18 - 18) =     26.58311  eV     1   --> A_1  D_1  S_1  
     e( 19 - 19) =     27.06094  eV     1   --> A_2  D_2  S_2  
     e( 20 - 20) =     28.70564  eV     1   --> A_1  D_1  S_1  
     e( 21 - 22) =     28.99968  eV     2   --> B_1  D_3  S_3  
     e( 21 - 22) =     28.99968  eV     2   --> B_2  D_4  S_4  
     e( 23 - 23) =     30.79613  eV     1   --> A_1  D_1  S_1  
     e( 24 - 25) =     31.89242  eV     2   --> B_1  D_3  S_3  
     e( 24 - 25) =     31.89242  eV     2   --> B_2  D_4  S_4  
     e( 26 - 26) =     32.74720  eV     1   --> A_2  D_2  S_2  
     e( 27 - 27) =     36.18315  eV     1   --> A_1  D_1  S_1  
     e( 28 - 28) =     37.48247  eV     1   --> A_1  D_1  S_1  
     e( 29 - 30) =     37.71064  eV     2   --> B_1  D_3  S_3  
     e( 29 - 30) =     37.71064  eV     2   --> B_2  D_4  S_4  
     e( 31 - 31) =     39.28952  eV     1   --> A_1  D_1  S_1  
     e( 32 - 32) =     40.06427  eV     1   -->   ?

 **************************************************************************

 **************************************************************************

                    xk=(  -0.20000,   0.00000,   0.00000  )

     Band symmetry, C_2v (mm2)  point group:

     e(  1 -  1) =     -7.87133  eV     1   --> A_1  D_1  S_1  
     e(  2 -  2) =      2.68940  eV     1   --> A_1  D_1  S_1  
     e(  3 -  4) =      3.81667  eV     2   --> B_1  D_3  S_3  
     e(  3 -  4) =      3.81667  eV     2   --> B_2  D_4  S_4  
     e(  5 -  5) =      5.93382  eV     1   --> A_1  D_1  S_1  
     e(  6 -  6) =      7.73515  eV     1   --> A_1  D_1  S_1  
     e(  7 -  8) =      8.81094  eV     2   --> B_1  D_3  S_3  
     e(  7 -  8) =      8.81094  eV     2   --> B_2  D_4  S_4  
     e(  9 -  9) =     12.40490  eV     1   --> A_1  D_1  S_1  
     e( 10 - 10) =     12.94178  eV     1   --> A_1  D_1  S_1  
     e( 11 - 11) =     14.27335  eV     1   --> A_2  D_2  S_2  
     e( 12 - 13) =     15.44807  eV     2   --> B_1  D_3  S_3  
     e( 12 - 13) =     15.44807  eV     2   --> B_2  D_4  S_4  
     e( 14 - 14) =     16.10149  eV     1   --> A_1  D_1  S_1  
     e( 15 - 15) =     19.05111  eV     1   --> A_1  D_1  S_1  
     e( 16 - 17) =     25.52674  eV     2   --> B_1  D_3  S_3  
     e( 16 - 17) =     25.52674  eV     2   --> B_2  D_4  S_4  
     e( 18 - 18) =     26.39447  eV     1   --> A_1  D_1  S_1  
     e( 19 - 19) =     26.82688  eV     1   --> A_2  D_2  S_2  
     e( 20 - 20) =     28.72602  eV     1   --> A_1  D_1  S_1  
     e( 21 - 22) =     29.02544  eV     2   --> B_1  D_3  S_3  
     e( 21 - 22) =     29.02544  eV     2   --> B_2  D_4  S_4  
     e( 23 - 23) =     30.89937  eV     1   --> A_1  D_1  S_1  
     e( 24 - 25) =     32.16758  eV     2   --> B_1  D_3  S_3  
     e( 24 - 25) =     32.16758  eV     2   --> B_2  D_4  S_4  
     e( 26 - 26) =     33.02642  eV     1   --> A_2  D_2  S_2  
     e( 27 - 27) =     36.05055  eV     1   --> A_1  D_1  S_1  
     e( 28 - 28) =     37.32210  eV     1   --> A_1  D_1  S_1  
     e( 29 - 30) =     37.39891  eV     2   --> B_1  D_3  S_3  
     e( 29 - 30) =     37.39891  eV     2   --> B_2  D_4  S_4  
     e( 31 - 31) =     39.16423  eV     1   --> A_1  D_1  S_1  
     e( 32 - 32) =     39.80022  eV     1   --> A_1  D_1  S_1  

 **************************************************************************

 **************************************************************************

                    xk=(  -0.21667,   0.00000,   0.00000  )

     Band symmetry, C_2v (mm2)  point group:

     e(  1 -  1) =     -7.84938  eV     1   --> A_1  D_1  S_1  
     e(  2 -  2) =      2.55720  eV     1   --> A_1  D_1  S_1  
     e(  3 -  4) =      3.75855  eV     2   --> B_1  D_3  S_3  
     e(  3 -  4) =      3.75855  eV     2   --> B_2  D_4  S_4  
     e(  5 -  5) =      6.06027  eV     1   --> A_1  D_1  S_1  
     e(  6 -  6) =      7.66448  eV     1   --> A_1  D_1  S_1  
     e(  7 -  8) =      8.89809  eV     2   --> B_1  D_3  S_3  
     e(  7 -  8) =      8.89809  eV     2   --> B_2  D_4  S_4  
     e(  9 -  9) =     12.27033  eV     1   --> A_1  D_1  S_1  
     e( 10 - 10) =     13.05265  eV     1   --> A_1  D_1  S_1  
     e( 11 - 11) =     14.29750  eV     1   --> A_2  D_2  S_2  
     e( 12 - 13) =     15.50459  eV     2   --> B_1  D_3  S_3  
     e( 12 - 13) =     15.50459  eV     2   --> B_2  D_4  S_4  
     e( 14 - 14) =     16.17142  eV     1   --> A_1  D_1  S_1  
     e( 15 - 15) =     19.28128  eV     1   --> A_1  D_1  S_1  
     e( 16 - 17) =     25.28975  eV     2   --> B_1  D_3  S_3  
     e( 16 - 17) =     25.28975  eV     2   --> B_2  D_4  S_4  
     e( 18 - 18) =     26.20307  eV     1   --> A_1  D_1  S_1  
     e( 19 - 19) =     26.59510  eV     1   --> A_2  D_2  S_2  
     e( 20 - 20) =     28.74815  eV     1   --> A_1  D_1  S_1  
     e( 21 - 22) =     29.05228  eV     2   --> B_1  D_3  S_3  
     e( 21 - 22) =     29.05228  eV     2   --> B_2  D_4  S_4  
     e( 23 - 23) =     30.99883  eV     1   --> A_1  D_1  S_1  
     e( 24 - 25) =     32.44622  eV     2   --> B_1  D_3  S_3  
     e( 24 - 25) =     32.44622  eV     2   --> B_2  D_4  S_4  
     e( 26 - 26) =     33.30685  eV     1   --> A_2  D_2  S_2  
     e( 27 - 27) =     35.85729  eV     1   --> A_1  D_1  S_1  
     e( 28 - 29) =     37.08261  eV     2   --> B_1  D_3  S_3  
     e( 28 - 29) =     37.08261  eV     2   --> B_2  D_4  S_4  
     e( 30 - 30) =     37.21012  eV     1   --> A_1  D_1  S_1  
     e( 31 - 31) =     39.03062  eV     1   --> A_1  D_1  S_1  
     e( 32 - 32) =     39.56299  eV     1   --> A_1  D_1  S_1  

 **************************************************************************

 **************************************************************************

                    xk=(  -0.23333,   0.00000,   0.00000  )

     Band symmetry, C_2v (mm2)  point group:

     e(  1 -  1) =     -7.82575  eV     1   --> A_1  D_1  S_1  
     e(  2 -  2) =      2.42551  eV     1   --> A_1  D_1  S_1  
     e(  3 -  4) =      3.69845  eV     2   --> B_1  D_3  S_3  
     e(  3 -  4) =      3.69845  eV     2   --> B_2  D_4  S_4  
     e(  5 -  5) =      6.18419  eV     1   --> A_1  D_1  S_1  
     e(  6 -  6) =      7.59242  eV     1   --> A_1  D_1  S_1  
     e(  7 -  8) =      8.98950  eV     2   --> B_1  D_3  S_3  
     e(  7 -  8) =      8.98950  eV     2   --> B_2  D_4  S_4  
     e(  9 -  9) =     12.13151  eV     1   --> A_1  D_1  S_1  
     e( 10 - 10) =     13.17877  eV     1   --> A_1  D_1  S_1  
     e( 11 - 11) =     14.32358  eV     1   --> A_2  D_2  S_2  
     e( 12 - 13) =     15.56564  eV     2   --> B_1  D_3  S_3  
     e( 12 - 13) =     15.56564  eV     2   --> B_2  D_4  S_4  
     e( 14 - 14) =     16.24013  eV     1   --> A_1  D_1  S_1  
     e( 15 - 15) =     19.52087  eV     1   --> A_1  D_1  S_1  
     e( 16 - 17) =     25.05373  eV     2   --> B_1  D_3  S_3  
     e( 16 - 17) =     25.05373  eV     2   --> B_2  D_4  S_4  
     e( 18 - 18) =     26.00956  eV     1   --> A_1  D_1  S_1  
     e( 19 - 19) =     26.36561  eV     1   --> A_2  D_2  S_2  
     e( 20 - 20) =     28.77201  eV     1   --> A_1  D_1  S_1  
     e( 21 - 22) =     29.08036  eV     2   --> B_1  D_3  S_3  
     e( 21 - 22) =     29.08036  eV     2   --> B_2  D_4  S_4  
     e( 23 - 23) =     31.09400  eV     1   --> A_1  D_1  S_1  
     e( 24 - 25) =     32.72786  eV     2   --> B_1  D_3  S_3  
     e( 24 - 25) =     32.72786  eV     2   --> B_2  D_4  S_4  
     e( 26 - 26) =     33.58834  eV     1   --> A_2  D_2  S_2  
     e( 27 - 27) =     35.61700  eV     1   --> A_1  D_1  S_1  
     e( 28 - 29) =     36.76282  eV     2   --> B_1  D_3  S_3  
     e( 28 - 29) =     36.76282  eV     2   --> B_2  D_4  S_4  
     e( 30 - 30) =     37.12536  eV     1   --> A_1  D_1  S_1  
     e( 31 - 31) =     38.88279  eV     1   --> A_1  D_1  S_1  
     e( 32 - 32) =     39.36777  eV     1   --> A_1  D_1  S_1  

 **************************************************************************

 **************************************************************************

                    xk=(  -0.25000,   0.00000,   0.00000  )

     Band symmetry, C_2v (mm2)  point group:

     e(  1 -  1) =     -7.80045  eV     1   --> A_1  D_1  S_1  
     e(  2 -  2) =      2.29437  eV     1   --> A_1  D_1  S_1  
     e(  3 -  4) =      3.63672  eV     2   --> B_1  D_3  S_3  
     e(  3 -  4) =      3.63672  eV     2   --> B_2  D_4  S_4  
     e(  5 -  5) =      6.30509  eV     1   --> A_1  D_1  S_1  
     e(  6 -  6) =      7.51940  eV     1   --> A_1  D_1  S_1  
     e(  7 -  8) =      9.08481  eV     2   --> B_1  D_3  S_3  
     e(  7 -  8) =      9.08481  eV     2   --> B_2  D_4  S_4  
     e(  9 -  9) =     11.99482  eV     1   --> A_1  D_1  S_1  
     e( 10 - 10) =     13.31401  eV     1   --> A_1  D_1  S_1  
     e( 11 - 11) =     14.35157  eV     1   --> A_2  D_2  S_2  
     e( 12 - 13) =     15.63123  eV     2   --> B_1  D_3  S_3  
     e( 12 - 13) =     15.63123  eV     2   --> B_2  D_4  S_4  
     e( 14 - 14) =     16.30839  eV     1   --> A_1  D_1  S_1  
     e( 15 - 15) =     19.76882  eV     1   --> A_1  D_1  S_1  
     e( 16 - 17) =     24.81884  eV     2   --> B_1  D_3  S_3  
     e( 16 - 17) =     24.81884  eV     2   --> B_2  D_4  S_4  
     e( 18 - 18) =     25.81447  eV     1   --> A_1  D_1  S_1  
     e( 19 - 19) =     26.13843  eV     1   --> A_2  D_2  S_2  
     e( 20 - 20) =     28.79761  eV     1   --> A_1  D_1  S_1  
     e( 21 - 22) =     29.10978  eV     2   --> B_1  D_3  S_3  
     e( 21 - 22) =     29.10978  eV     2   --> B_2  D_4  S_4  
     e( 23 - 23) =     31.18438  eV     1   --> A_1  D_1  S_1  
     e( 24 - 25) =     33.01214  eV     2   --> B_1  D_3  S_3  
     e( 24 - 25) =     33.01214  eV     2   --> B_2  D_4  S_4  
     e( 26 - 26) =     33.87068  eV     1   --> A_2  D_2  S_2  
     e( 27 - 27) =     35.34656  eV     1   --> A_1  D_1  S_1  
     e( 28 - 29) =     36.44049  eV     2   --> B_1  D_3  S_3  
     e( 28 - 29) =     36.44049  eV     2   --> B_2  D_4  S_4  
     e( 30 - 30) =     37.04213  eV     1   --> A_1  D_1  S_1  
     e( 31 - 31) =     38.71878  eV     1   --> A_1  D_1  S_1  
     e( 32 - 32) =     39.22607  eV     1   --> A_1  D_1  S_1  

 **************************************************************************

 **************************************************************************

                    xk=(  -0.26667,   0.00000,   0.00000  )

     Band symmetry, C_2v (mm2)  point group:

     e(  1 -  1) =     -7.77350  eV     1   --> A_1  D_1  S_1  
     e(  2 -  2) =      2.16379  eV     1   --> A_1  D_1  S_1  
     e(  3 -  4) =      3.57369  eV     2   --> B_1  D_3  S_3  
     e(  3 -  4) =      3.57369  eV     2   --> B_2  D_4  S_4  
     e(  5 -  5) =      6.42245  eV     1   --> A_1  D_1  S_1  
     e(  6 -  6) =      7.44581  eV     1   --> A_1  D_1  S_1  
     e(  7 -  8) =      9.18368  eV     2   --> B_1  D_3  S_3  
     e(  7 -  8) =      9.18368  eV     2   --> B_2  D_4  S_4  
     e(  9 -  9) =     11.86298  eV     1   --> A_1  D_1  S_1  
     e( 10 - 10) =     13.45594  eV     1   --> A_1  D_1  S_1  
     e( 11 - 11) =     14.38147  eV     1   --> A_2  D_2  S_2  
     e( 12 - 13) =     15.70134  eV     2   --> B_1  D_3  S_3  
     e( 12 - 13) =     15.70134  eV     2   --> B_2  D_4  S_4  
     e( 14 - 14) =     16.37687  eV     1   --> A_1  D_1  S_1  
     e( 15 - 15) =     20.02420  eV     1   --> A_1  D_1  S_1  
     e( 16 - 17) =     24.58522  eV     2   --> B_1  D_3  S_3  
     e( 16 - 17) =     24.58522  eV     2   --> B_2  D_4  S_4  
     e( 18 - 18) =     25.61826  eV     1   --> A_1  D_1  S_1  
     e( 19 - 19) =     25.91358  eV     1   --> A_2  D_2  S_2  
     e( 20 - 20) =     28.82493  eV     1   --> A_1  D_1  S_1  
     e( 21 - 22) =     29.14060  eV     2   --> B_1  D_3  S_3  
     e( 21 - 22) =     29.14060  eV     2   --> B_2  D_4  S_4  
     e( 23 - 23) =     31.26942  eV     1   --> A_1  D_1  S_1  
     e( 24 - 25) =     33.29869  eV     2   --> B_1  D_3  S_3  
     e( 24 - 25) =     33.29869  eV     2   --> B_2  D_4  S_4  
     e( 26 - 26) =     34.15360  eV     1   --> A_2  D_2  S_2  
     e( 27 - 27) =     35.05887  eV     1   --> A_1  D_1  S_1  
     e( 28 - 29) =     36.11648  eV     2   --> B_1  D_3  S_3  
     e( 28 - 29) =     36.11648  eV     2   --> B_2  D_4  S_4  
     e( 30 - 30) =     36.93928  eV     1   --> A_1  D_1  S_1  
     e( 31 - 31) =     38.54710  eV     1   --> A_1  D_1  S_1  
     e( 32 - 32) =     39.13823  eV     1   --> A_1  D_1  S_1  

 **************************************************************************

 **************************************************************************

                    xk=(  -0.28333,   0.00000,   0.00000  )

     Band symmetry, C_2v (mm2)  point group:

     e(  1 -  1) =     -7.74492  eV     1   --> A_1  D_1  S_1  
     e(  2 -  2) =      2.03380  eV     1   --> A_1  D_1  S_1  
     e(  3 -  4) =      3.50965  eV     2   --> B_1  D_3  S_3  
     e(  3 -  4) =      3.50965  eV     2   --> B_2  D_4  S_4  
     e(  5 -  5) =      6.53566  eV     1   --> A_1  D_1  S_1  
     e(  6 -  6) =      7.37201  eV     1   --> A_1  D_1  S_1  
     e(  7 -  8) =      9.28580  eV     2   --> B_1  D_3  S_3  
     e(  7 -  8) =      9.28580  eV     2   --> B_2  D_4  S_4  
     e(  9 -  9) =     11.73761  eV     1   --> A_1  D_1  S_1  
     e( 10 - 10) =     13.60329  eV     1   --> A_1  D_1  S_1  
     e( 11 - 11) =     14.41329  eV     1   --> A_2  D_2  S_2  
     e( 12 - 13) =     15.77598  eV     2   --> B_1  D_3  S_3  
     e( 12 - 13) =     15.77598  eV     2   --> B_2  D_4  S_4  
     e( 14 - 14) =     16.44612  eV     1   --> A_1  D_1  S_1  
     e( 15 - 15) =     20.28625  eV     1   --> A_1  D_1  S_1  
     e( 16 - 17) =     24.35299  eV     2   --> B_1  D_3  S_3  
     e( 16 - 17) =     24.35299  eV     2   --> B_2  D_4  S_4  
     e( 18 - 18) =     25.42135  eV     1   --> A_1  D_1  S_1  
     e( 19 - 19) =     25.69107  eV     1   --> A_2  D_2  S_2  
     e( 20 - 20) =     28.85395  eV     1   --> A_1  D_1  S_1  
     e( 21 - 22) =     29.17284  eV     2   --> B_1  D_3  S_3  
     e( 21 - 22) =     29.17284  eV     2   --> B_2  D_4  S_4  
     e( 23 - 23) =     31.34844  eV     1   --> A_1  D_1  S_1  
     e( 24 - 25) =     33.58708  eV     2   --> B_1  D_3  S_3  
     e( 24 - 25) =     33.58708  eV     2   --> B_2  D_4  S_4  
     e( 26 - 26) =     34.43681  eV     1   --> A_2  D_2  S_2  
     e( 27 - 27) =     34.76242  eV     1   --> A_1  D_1  S_1  
     e( 28 - 29) =     35.79165  eV     2   --> B_1  D_3  S_3  
     e( 28 - 29) =     35.79165  eV     2   --> B_2  D_4  S_4  
     e( 30 - 30) =     36.80365  eV     1   --> A_1  D_1  S_1  
     e( 31 - 31) =     38.37954  eV     1   --> A_1  D_1  S_1  
     e( 32 - 32) =     39.09761  eV     1   --> A_1  D_1  S_1  

 **************************************************************************

 **************************************************************************

                    xk=(  -0.30000,   0.00000,   0.00000  )

     Band symmetry, C_2v (mm2)  point group:

     e(  1 -  1) =     -7.71473  eV     1   --> A_1  D_1  S_1  
     e(  2 -  2) =      1.90443  eV     1   --> A_1  D_1  S_1  
     e(  3 -  4) =      3.44488  eV     2   --> B_1  D_3  S_3  
     e(  3 -  4) =      3.44488  eV     2   --> B_2  D_4  S_4  
     e(  5 -  5) =      6.64405  eV     1   --> A_1  D_1  S_1  
     e(  6 -  6) =      7.29831  eV     1   --> A_1  D_1  S_1  
     e(  7 -  8) =      9.39089  eV     2   --> B_1  D_3  S_3  
     e(  7 -  8) =      9.39089  eV     2   --> B_2  D_4  S_4  
     e(  9 -  9) =     11.61992  eV     1   --> A_1  D_1  S_1  
     e( 10 - 10) =     13.75524  eV     1   --> A_1  D_1  S_1  
     e( 11 - 11) =     14.44700  eV     1   --> A_2  D_2  S_2  
     e( 12 - 13) =     15.85514  eV     2   --> B_1  D_3  S_3  
     e( 12 - 13) =     15.85514  eV     2   --> B_2  D_4  S_4  
     e( 14 - 14) =     16.51664  eV     1   --> A_1  D_1  S_1  
     e( 15 - 15) =     20.55430  eV     1   --> A_1  D_1  S_1  
     e( 16 - 17) =     24.12223  eV     2   --> B_1  D_3  S_3  
     e( 16 - 17) =     24.12223  eV     2   --> B_2  D_4  S_4  
     e( 18 - 18) =     25.22411  eV     1   --> A_1  D_1  S_1  
     e( 19 - 19) =     25.47092  eV     1   --> A_2  D_2  S_2  
     e( 20 - 20) =     28.88466  eV     1   --> A_1  D_1  S_1  
     e( 21 - 22) =     29.20651  eV     2   --> B_1  D_3  S_3  
     e( 21 - 22) =     29.20651  eV     2   --> B_2  D_4  S_4  
     e( 23 - 23) =     31.42046  eV     1   --> A_1  D_1  S_1  
     e( 24 - 25) =     33.87656  eV     2   --> B_1  D_3  S_3  
     e( 24 - 25) =     33.87656  eV     2   --> B_2  D_4  S_4  
     e( 26 - 26) =     34.46290  eV     1   --> A_1  D_1  S_1  
     e( 27 - 27) =     34.71989  eV     1   --> A_2  D_2  S_2  
     e( 28 - 29) =     35.46713  eV     2   --> B_1  D_3  S_3  
     e( 28 - 29) =     35.46713  eV     2   --> B_2  D_4  S_4  
     e( 30 - 30) =     36.63098  eV     1   --> A_1  D_1  S_1  
     e( 31 - 31) =     38.22208  eV     1   --> A_1  D_1  S_1  
     e( 32 - 32) =     39.09742  eV     1   --> A_1  D_1  S_1  

 **************************************************************************

 **************************************************************************

                    xk=(  -0.31667,   0.00000,   0.00000  )

     Band symmetry, C_2v (mm2)  point group:

     e(  1 -  1) =     -7.68297  eV     1   --> A_1  D_1  S_1  
     e(  2 -  2) =      1.77570  eV     1   --> A_1  D_1  S_1  
     e(  3 -  4) =      3.37964  eV     2   --> B_1  D_3  S_3  
     e(  3 -  4) =      3.37964  eV     2   --> B_2  D_4  S_4  
     e(  5 -  5) =      6.74689  eV     1   --> A_1  D_1  S_1  
     e(  6 -  6) =      7.22499  eV     1   --> A_1  D_1  S_1  
     e(  7 -  8) =      9.49868  eV     2   --> B_1  D_3  S_3  
     e(  7 -  8) =      9.49868  eV     2   --> B_2  D_4  S_4  
     e(  9 -  9) =     11.51100  eV     1   --> A_1  D_1  S_1  
     e( 10 - 10) =     13.91117  eV     1   --> A_1  D_1  S_1  
     e( 11 - 11) =     14.48262  eV     1   --> A_2  D_2  S_2  
     e( 12 - 13) =     15.93881  eV     2   --> B_1  D_3  S_3  
     e( 12 - 13) =     15.93881  eV     2   --> B_2  D_4  S_4  
     e( 14 - 14) =     16.58886  eV     1   --> A_1  D_1  S_1  
     e( 15 - 15) =     20.82778  eV     1   --> A_1  D_1  S_1  
     e( 16 - 17) =     23.89302  eV     2   --> B_1  D_3  S_3  
     e( 16 - 17) =     23.89302  eV     2   --> B_2  D_4  S_4  
     e( 18 - 18) =     25.02690  eV     1   --> A_1  D_1  S_1  
     e( 19 - 19) =     25.25314  eV     1   --> A_2  D_2  S_2  
     e( 20 - 20) =     28.91704  eV     1   --> A_1  D_1  S_1  
     e( 21 - 22) =     29.24158  eV     2   --> B_1  D_3  S_3  
     e( 21 - 22) =     29.24158  eV     2   --> B_2  D_4  S_4  
     e( 23 - 23) =     31.48403  eV     1   --> A_1  D_1  S_1  
     e( 24 - 24) =     34.16462  eV     1   --> A_1  D_1  S_1  
     e( 25 - 26) =     34.16497  eV     2   --> B_1  D_3  S_3  
     e( 25 - 26) =     34.16497  eV     2   --> B_2  D_4  S_4  
     e( 27 - 27) =     35.00232  eV     1   --> A_2  D_2  S_2  
     e( 28 - 29) =     35.14540  eV     2   --> B_1  D_3  S_3  
     e( 28 - 29) =     35.14540  eV     2   --> B_2  D_4  S_4  
     e( 30 - 30) =     36.42424  eV     1   --> A_1  D_1  S_1  
     e( 31 - 31) =     38.07471  eV     1   --> A_1  D_1  S_1  
     e( 32 - 32) =     39.05956  eV     1   -->   ?

 **************************************************************************

 **************************************************************************

                    xk=(  -0.33333,   0.00000,   0.00000  )

     Band symmetry, C_2v (mm2)  point group:

     e(  1 -  1) =     -7.64966  eV     1   --> A_1  D_1  S_1  
     e(  2 -  2) =      1.64764  eV     1   --> A_1  D_1  S_1  
     e(  3 -  4) =      3.31417  eV     2   --> B_1  D_3  S_3  
     e(  3 -  4) =      3.31417  eV     2   --> B_2  D_4  S_4  
     e(  5 -  5) =      6.84332  eV     1   --> A_1  D_1  S_1  
     e(  6 -  6) =      7.15234  eV     1   --> A_1  D_1  S_1  
     e(  7 -  8) =      9.60894  eV     2   --> B_1  D_3  S_3  
     e(  7 -  8) =      9.60894  eV     2   --> B_2  D_4  S_4  
     e(  9 -  9) =     11.41187  eV     1   --> A_1  D_1  S_1  
     e( 10 - 10) =     14.07058  eV     1   --> A_1  D_1  S_1  
     e( 11 - 11) =     14.52012  eV     1   --> A_2  D_2  S_2  
     e( 12 - 13) =     16.02700  eV     2   --> B_1  D_3  S_3  
     e( 12 - 13) =     16.02700  eV     2   --> B_2  D_4  S_4  
     e( 14 - 14) =     16.66315  eV     1   --> A_1  D_1  S_1  
     e( 15 - 15) =     21.10619  eV     1   --> A_1  D_1  S_1  
     e( 16 - 17) =     23.66542  eV     2   --> B_1  D_3  S_3  
     e( 16 - 17) =     23.66542  eV     2   --> B_2  D_4  S_4  
     e( 18 - 18) =     24.83007  eV     1   --> A_1  D_1  S_1  
     e( 19 - 19) =     25.03775  eV     1   --> A_2  D_2  S_2  
     e( 20 - 20) =     28.95106  eV     1   --> A_1  D_1  S_1  
     e( 21 - 22) =     29.27802  eV     2   --> B_1  D_3  S_3  
     e( 21 - 22) =     29.27802  eV     2   --> B_2  D_4  S_4  
     e( 23 - 23) =     31.53688  eV     1   --> A_1  D_1  S_1  
     e( 24 - 24) =     33.87166  eV     1   --> A_1  D_1  S_1  
     e( 25 - 26) =     34.43766  eV     2   --> B_1  D_3  S_3  
     e( 25 - 26) =     34.43766  eV     2   --> B_2  D_4  S_4  
     e( 27 - 28) =     34.84135  eV     2   --> B_1  D_3  S_3  
     e( 27 - 28) =     34.84135  eV     2   --> B_2  D_4  S_4  
     e( 29 - 29) =     35.28344  eV     1   --> A_2  D_2  S_2  
     e( 30 - 30) =     36.19016  eV     1   --> A_1  D_1  S_1  
     e( 31 - 31) =     37.93486  eV     1   --> A_1  D_1  S_1  
     e( 32 - 32) =     38.92428  eV     1   -->   ?

 **************************************************************************

 **************************************************************************

                    xk=(  -0.35000,   0.00000,   0.00000  )

     Band symmetry, C_2v (mm2)  point group:

     e(  1 -  1) =     -7.61483  eV     1   --> A_1  D_1  S_1  
     e(  2 -  2) =      1.52028  eV     1   --> A_1  D_1  S_1  
     e(  3 -  4) =      3.24866  eV     2   --> B_1  D_3  S_3  
     e(  3 -  4) =      3.24866  eV     2   --> B_2  D_4  S_4  
     e(  5 -  5) =      6.93225  eV     1   --> A_1  D_1  S_1  
     e(  6 -  6) =      7.08084  eV     1   --> A_1  D_1  S_1  
     e(  7 -  8) =      9.72144  eV     2   --> B_1  D_3  S_3  
     e(  7 -  8) =      9.72144  eV     2   --> B_2  D_4  S_4  
     e(  9 -  9) =     11.32355  eV     1   --> A_1  D_1  S_1  
     e( 10 - 10) =     14.23300  eV     1   --> A_1  D_1  S_1  
     e( 11 - 11) =     14.55951  eV     1   --> A_2  D_2  S_2  
     e( 12 - 13) =     16.11967  eV     2   --> B_1  D_3  S_3  
     e( 12 - 13) =     16.11967  eV     2   --> B_2  D_4  S_4  
     e( 14 - 14) =     16.73985  eV     1   --> A_1  D_1  S_1  
     e( 15 - 15) =     21.38905  eV     1   --> A_1  D_1  S_1  
     e( 16 - 17) =     23.43950  eV     2   --> B_1  D_3  S_3  
     e( 16 - 17) =     23.43950  eV     2   --> B_2  D_4  S_4  
     e( 18 - 18) =     24.63397  eV     1   --> A_1  D_1  S_1  
     e( 19 - 19) =     24.82477  eV     1   --> A_2  D_2  S_2  
     e( 20 - 20) =     28.98670  eV     1   --> A_1  D_1  S_1  
     e( 21 - 22) =     29.31575  eV     2   --> B_1  D_3  S_3  
     e( 21 - 22) =     29.31575  eV     2   --> B_2  D_4  S_4  
     e( 23 - 23) =     31.57537  eV     1   --> A_1  D_1  S_1  
     e( 24 - 24) =     33.58881  eV     1   --> A_1  D_1  S_1  
     e( 25 - 26) =     34.43711  eV     2   --> B_1  D_3  S_3  
     e( 25 - 26) =     34.43711  eV     2   --> B_2  D_4  S_4  
     e( 27 - 28) =     34.81274  eV     2   --> B_1  D_3  S_3  
     e( 27 - 28) =     34.81274  eV     2   --> B_2  D_4  S_4  
     e( 29 - 29) =     35.56235  eV     1   --> A_2  D_2  S_2  
     e( 30 - 30) =     35.93600  eV     1   --> A_1  D_1  S_1  
     e( 31 - 31) =     37.79988  eV     1   --> A_1  D_1  S_1  
     e( 32 - 32) =     38.79071  eV     1   -->   ?

 **************************************************************************

 **************************************************************************

                    xk=(  -0.36667,   0.00000,   0.00000  )

     Band symmetry, C_2v (mm2)  point group:

     e(  1 -  1) =     -7.57850  eV     1   --> A_1  D_1  S_1  
     e(  2 -  2) =      1.39364  eV     1   --> A_1  D_1  S_1  
     e(  3 -  4) =      3.18331  eV     2   --> B_1  D_3  S_3  
     e(  3 -  4) =      3.18331  eV     2   --> B_2  D_4  S_4  
     e(  5 -  5) =      6.99933  eV     1   --> A_1  D_1  S_1  
     e(  6 -  6) =      7.02415  eV     1   --> A_1  D_1  S_1  
     e(  7 -  8) =      9.83599  eV     2   --> B_1  D_3  S_3  
     e(  7 -  8) =      9.83599  eV     2   --> B_2  D_4  S_4  
     e(  9 -  9) =     11.24699  eV     1   --> A_1  D_1  S_1  
     e( 10 - 10) =     14.39801  eV     1   --> A_1  D_1  S_1  
     e( 11 - 11) =     14.60078  eV     1   --> A_2  D_2  S_2  
     e( 12 - 13) =     16.21682  eV     2   --> B_1  D_3  S_3  
     e( 12 - 13) =     16.21682  eV     2   --> B_2  D_4  S_4  
     e( 14 - 14) =     16.81927  eV     1   --> A_1  D_1  S_1  
     e( 15 - 15) =     21.67590  eV     1   --> A_1  D_1  S_1  
     e( 16 - 17) =     23.21531  eV     2   --> B_1  D_3  S_3  
     e( 16 - 17) =     23.21531  eV     2   --> B_2  D_4  S_4  
     e( 18 - 18) =     24.43900  eV     1   --> A_1  D_1  S_1  
     e( 19 - 19) =     24.61421  eV     1   --> A_2  D_2  S_2  
     e( 20 - 20) =     29.02390  eV     1   --> A_1  D_1  S_1  
     e( 21 - 22) =     29.35470  eV     2   --> B_1  D_3  S_3  
     e( 21 - 22) =     29.35470  eV     2   --> B_2  D_4  S_4  
     e( 23 - 23) =     31.59364  eV     1   --> A_1  D_1  S_1  
     e( 24 - 24) =     33.32261  eV     1   --> A_1  D_1  S_1  
     e( 25 - 26) =     34.13744  eV     2   --> B_1  D_3  S_3  
     e( 25 - 26) =     34.13744  eV     2   --> B_2  D_4  S_4  
     e( 27 - 28) =     35.08560  eV     2   --> B_1  D_3  S_3  
     e( 27 - 28) =     35.08560  eV     2   --> B_2  D_4  S_4  
     e( 29 - 29) =     35.66803  eV     1   --> A_1  D_1  S_1  
     e( 30 - 30) =     35.83783  eV     1   --> A_2  D_2  S_2  
     e( 31 - 31) =     37.66794  eV     1   --> A_1  D_1  S_1  
     e( 32 - 32) =     38.65881  eV     1   -->   ?

 **************************************************************************

 **************************************************************************

                    xk=(  -0.38333,   0.00000,   0.00000  )

     Band symmetry, C_2v (mm2)  point group:

     e(  1 -  1) =     -7.54073  eV     1   --> A_1  D_1  S_1  
     e(  2 -  2) =      1.26777  eV     1   --> A_1  D_1  S_1  
     e(  3 -  4) =      3.11831  eV     2   --> B_1  D_3  S_3  
     e(  3 -  4) =      3.11831  eV     2   --> B_2  D_4  S_4  
     e(  5 -  5) =      6.93792  eV     1   --> A_1  D_1  S_1  
     e(  6 -  6) =      7.08823  eV     1   --> A_1  D_1  S_1  
     e(  7 -  8) =      9.95241  eV     2   --> B_1  D_3  S_3  
     e(  7 -  8) =      9.95241  eV     2   --> B_2  D_4  S_4  
     e(  9 -  9) =     11.18314  eV     1   --> A_1  D_1  S_1  
     e( 10 - 10) =     14.56519  eV     1   --> A_1  D_1  S_1  
     e( 11 - 11) =     14.64391  eV     1   --> A_2  D_2  S_2  
     e( 12 - 13) =     16.31844  eV     2   --> B_1  D_3  S_3  
     e( 12 - 13) =     16.31844  eV     2   --> B_2  D_4  S_4  
     e( 14 - 14) =     16.90168  eV     1   --> A_1  D_1  S_1  
     e( 15 - 15) =     21.96623  eV     1   --> A_1  D_1  S_1  
     e( 16 - 17) =     22.99289  eV     2   --> B_1  D_3  S_3  
     e( 16 - 17) =     22.99289  eV     2   --> B_2  D_4  S_4  
     e( 18 - 18) =     24.24564  eV     1   --> A_1  D_1  S_1  
     e( 19 - 19) =     24.40608  eV     1   --> A_2  D_2  S_2  
     e( 20 - 20) =     29.06262  eV     1   --> A_1  D_1  S_1  
     e( 21 - 22) =     29.39474  eV     2   --> B_1  D_3  S_3  
     e( 21 - 22) =     29.39474  eV     2   --> B_2  D_4  S_4  
     e( 23 - 23) =     31.58265  eV     1   --> A_1  D_1  S_1  
     e( 24 - 24) =     33.08244  eV     1   --> A_1  D_1  S_1  
     e( 25 - 26) =     33.81874  eV     2   --> B_1  D_3  S_3  
     e( 25 - 26) =     33.81874  eV     2   --> B_2  D_4  S_4  
     e( 27 - 28) =     35.37996  eV     2   --> B_1  D_3  S_3  
     e( 27 - 28) =     35.37996  eV     2   --> B_2  D_4  S_4  
     e( 29 - 29) =     35.39117  eV     1   --> A_1  D_1  S_1  
     e( 30 - 30) =     36.10827  eV     1   --> A_2  D_2  S_2  
     e( 31 - 31) =     37.53800  eV     1   --> A_1  D_1  S_1  
     e( 32 - 32) =     38.52864  eV     1   -->   ?

 **************************************************************************

 **************************************************************************

                    xk=(  -0.40000,   0.00000,   0.00000  )

     Band symmetry, C_2v (mm2)  point group:

     e(  1 -  1) =     -7.50154  eV     1   --> A_1  D_1  S_1  
     e(  2 -  2) =      1.14270  eV     1   --> A_1  D_1  S_1  
     e(  3 -  4) =      3.05381  eV     2   --> B_1  D_3  S_3  
     e(  3 -  4) =      3.05381  eV     2   --> B_2  D_4  S_4  
     e(  5 -  5) =      6.86975  eV     1   --> A_1  D_1  S_1  
     e(  6 -  6) =      7.15073  eV     1   --> A_1  D_1  S_1  
     e(  7 -  8) =     10.07053  eV     2   --> B_1  D_3  S_3  
     e(  7 -  8) =     10.07053  eV     2   --> B_2  D_4  S_4  
     e(  9 -  9) =     11.13283  eV     1   --> A_1  D_1  S_1  
     e( 10 - 10) =     14.68889  eV     1   --> A_2  D_2  S_2  
     e( 11 - 11) =     14.73413  eV     1   --> A_1  D_1  S_1  
     e( 12 - 13) =     16.42450  eV     2   --> B_1  D_3  S_3  
     e( 12 - 13) =     16.42450  eV     2   --> B_2  D_4  S_4  
     e( 14 - 14) =     16.98736  eV     1   --> A_1  D_1  S_1  
     e( 15 - 15) =     22.25932  eV     1   --> A_1  D_1  S_1  
     e( 16 - 17) =     22.77229  eV     2   --> B_1  D_3  S_3  
     e( 16 - 17) =     22.77229  eV     2   --> B_2  D_4  S_4  
     e( 18 - 18) =     24.05463  eV     1   --> A_1  D_1  S_1  
     e( 19 - 19) =     24.20042  eV     1   --> A_2  D_2  S_2  
     e( 20 - 20) =     29.10278  eV     1   --> A_1  D_1  S_1  
     e( 21 - 22) =     29.43572  eV     2   --> B_1  D_3  S_3  
     e( 21 - 22) =     29.43572  eV     2   --> B_2  D_4  S_4  
     e( 23 - 23) =     31.53020  eV     1   --> A_1  D_1  S_1  
     e( 24 - 24) =     32.88047  eV     1   --> A_1  D_1  S_1  
     e( 25 - 26) =     33.49826  eV     2   --> B_1  D_3  S_3  
     e( 25 - 26) =     33.49826  eV     2   --> B_2  D_4  S_4  
     e( 27 - 27) =     35.10935  eV     1   --> A_1  D_1  S_1  
     e( 28 - 29) =     35.67860  eV     2   --> B_1  D_3  S_3  
     e( 28 - 29) =     35.67860  eV     2   --> B_2  D_4  S_4  
     e( 30 - 30) =     36.37140  eV     1   --> A_2  D_2  S_2  
     e( 31 - 31) =     37.40956  eV     1   --> A_1  D_1  S_1  
     e( 32 - 32) =     38.40029  eV     1   -->   ?

 **************************************************************************

 **************************************************************************

                    xk=(  -0.41667,   0.00000,   0.00000  )

     Band symmetry, C_2v (mm2)  point group:

     e(  1 -  1) =     -7.46098  eV     1   --> A_1  D_1  S_1  
     e(  2 -  2) =      1.01848  eV     1   --> A_1  D_1  S_1  
     e(  3 -  4) =      2.98995  eV     2   --> B_1  D_3  S_3  
     e(  3 -  4) =      2.98995  eV     2   --> B_2  D_4  S_4  
     e(  5 -  5) =      6.80267  eV     1   --> A_1  D_1  S_1  
     e(  6 -  6) =      7.20325  eV     1   --> A_1  D_1  S_1  
     e(  7 -  8) =     10.19019  eV     2   --> B_1  D_3  S_3  
     e(  7 -  8) =     10.19019  eV     2   --> B_2  D_4  S_4  
     e(  9 -  9) =     11.09677  eV     1   --> A_1  D_1  S_1  
     e( 10 - 10) =     14.73573  eV     1   --> A_2  D_2  S_2  
     e( 11 - 11) =     14.90438  eV     1   --> A_1  D_1  S_1  
     e( 12 - 13) =     16.53497  eV     2   --> B_1  D_3  S_3  
     e( 12 - 13) =     16.53497  eV     2   --> B_2  D_4  S_4  
     e( 14 - 14) =     17.07659  eV     1   --> A_1  D_1  S_1  
     e( 15 - 16) =     22.55356  eV     2   --> B_1  D_3  S_3  
     e( 15 - 16) =     22.55356  eV     2   --> B_2  D_4  S_4  
     e( 17 - 17) =     22.55381  eV     1   --> A_1  D_1  S_1  
     e( 18 - 18) =     23.86735  eV     1   --> A_1  D_1  S_1  
     e( 19 - 19) =     23.99724  eV     1   --> A_2  D_2  S_2  
     e( 20 - 20) =     29.14425  eV     1   --> A_1  D_1  S_1  
     e( 21 - 22) =     29.47741  eV     2   --> B_1  D_3  S_3  
     e( 21 - 22) =     29.47741  eV     2   --> B_2  D_4  S_4  
     e( 23 - 23) =     31.42498  eV     1   --> A_1  D_1  S_1  
     e( 24 - 24) =     32.72758  eV     1   --> A_1  D_1  S_1  
     e( 25 - 26) =     33.17855  eV     2   --> B_1  D_3  S_3  
     e( 25 - 26) =     33.17855  eV     2   --> B_2  D_4  S_4  
     e( 27 - 27) =     34.82587  eV     1   --> A_1  D_1  S_1  
     e( 28 - 29) =     35.97890  eV     2   --> B_1  D_3  S_3  
     e( 28 - 29) =     35.97890  eV     2   --> B_2  D_4  S_4  
     e( 30 - 30) =     36.62416  eV     1   --> A_2  D_2  S_2  
     e( 31 - 31) =     37.28246  eV     1   --> A_1  D_1  S_1  
     e( 32 - 32) =     38.27404  eV     1   -->   ?

 **************************************************************************

 **************************************************************************

                    xk=(  -0.43333,   0.00000,   0.00000  )

     Band symmetry, C_2v (mm2)  point group:

     e(  1 -  1) =     -7.41909  eV     1   --> A_1  D_1  S_1  
     e(  2 -  2) =      0.89514  eV     1   --> A_1  D_1  S_1  
     e(  3 -  4) =      2.92688  eV     2   --> B_1  D_3  S_3  
     e(  3 -  4) =      2.92688  eV     2   --> B_2  D_4  S_4  
     e(  5 -  5) =      6.73703  eV     1   --> A_1  D_1  S_1  
     e(  6 -  6) =      7.24508  eV     1   --> A_1  D_1  S_1  
     e(  7 -  8) =     10.31126  eV     2   --> B_1  D_3  S_3  
     e(  7 -  8) =     10.31126  eV     2   --> B_2  D_4  S_4  
     e(  9 -  9) =     11.07545  eV     1   --> A_1  D_1  S_1  
     e( 10 - 10) =     14.78439  eV     1   --> A_2  D_2  S_2  
     e( 11 - 11) =     15.07549  eV     1   --> A_1  D_1  S_1  
     e( 12 - 13) =     16.64983  eV     2   --> B_1  D_3  S_3  
     e( 12 - 13) =     16.64983  eV     2   --> B_2  D_4  S_4  
     e( 14 - 14) =     17.16963  eV     1   --> A_1  D_1  S_1  
     e( 15 - 16) =     22.33675  eV     2   --> B_1  D_3  S_3  
     e( 15 - 16) =     22.33675  eV     2   --> B_2  D_4  S_4  
     e( 17 - 17) =     22.84583  eV     1   --> A_1  D_1  S_1  
     e( 18 - 18) =     23.68773  eV     1   --> A_1  D_1  S_1  
     e( 19 - 19) =     23.79655  eV     1   --> A_2  D_2  S_2  
     e( 20 - 20) =     29.18685  eV     1   --> A_1  D_1  S_1  
     e( 21 - 22) =     29.51952  eV     2   --> B_1  D_3  S_3  
     e( 21 - 22) =     29.51952  eV     2   --> B_2  D_4  S_4  
     e( 23 - 23) =     31.26458  eV     1   --> A_1  D_1  S_1  
     e( 24 - 24) =     32.62514  eV     1   --> A_1  D_1  S_1  
     e( 25 - 26) =     32.86063  eV     2   --> B_1  D_3  S_3  
     e( 25 - 26) =     32.86063  eV     2   --> B_2  D_4  S_4  
     e( 27 - 27) =     34.54396  eV     1   --> A_1  D_1  S_1  
     e( 28 - 29) =     36.27948  eV     2   --> B_1  D_3  S_3  
     e( 28 - 29) =     36.27948  eV     2   --> B_2  D_4  S_4  
     e( 30 - 30) =     36.86245  eV     1   --> A_2  D_2  S_2  
     e( 31 - 31) =     37.15670  eV     1   --> A_1  D_1  S_1  
     e( 32 - 32) =     38.15047  eV     1   -->   ?

 **************************************************************************

 **************************************************************************

                    xk=(  -0.45000,   0.00000,   0.00000  )

     Band symmetry, C_2v (mm2)  point group:

     e(  1 -  1) =     -7.37593  eV     1   --> A_1  D_1  S_1  
     e(  2 -  2) =      0.77275  eV     1   --> A_1  D_1  S_1  
     e(  3 -  4) =      2.86471  eV     2   --> B_1  D_3  S_3  
     e(  3 -  4) =      2.86471  eV     2   --> B_2  D_4  S_4  
     e(  5 -  5) =      6.67296  eV     1   --> A_1  D_1  S_1  
     e(  6 -  6) =      7.27592  eV     1   --> A_1  D_1  S_1  
     e(  7 -  8) =     10.43361  eV     2   --> B_1  D_3  S_3  
     e(  7 -  8) =     10.43361  eV     2   --> B_2  D_4  S_4  
     e(  9 -  9) =     11.06914  eV     1   --> A_1  D_1  S_1  
     e( 10 - 10) =     14.83486  eV     1   --> A_2  D_2  S_2  
     e( 11 - 11) =     15.24697  eV     1   --> A_1  D_1  S_1  
     e( 12 - 13) =     16.76905  eV     2   --> B_1  D_3  S_3  
     e( 12 - 13) =     16.76905  eV     2   --> B_2  D_4  S_4  
     e( 14 - 14) =     17.26676  eV     1   --> A_1  D_1  S_1  
     e( 15 - 16) =     22.12190  eV     2   --> B_1  D_3  S_3  
     e( 15 - 16) =     22.12190  eV     2   --> B_2  D_4  S_4  
     e( 17 - 17) =     23.11493  eV     1   --> A_1  D_1  S_1  
     e( 18 - 18) =     23.53632  eV     1   --> A_1  D_1  S_1  
     e( 19 - 19) =     23.59838  eV     1   --> A_2  D_2  S_2  
     e( 20 - 20) =     29.23028  eV     1   --> A_1  D_1  S_1  
     e( 21 - 22) =     29.56161  eV     2   --> B_1  D_3  S_3  
     e( 21 - 22) =     29.56161  eV     2   --> B_2  D_4  S_4  
     e( 23 - 23) =     31.05842  eV     1   --> A_1  D_1  S_1  
     e( 24 - 25) =     32.54525  eV     2   --> B_1  D_3  S_3  
     e( 24 - 25) =     32.54525  eV     2   --> B_2  D_4  S_4  
     e( 26 - 26) =     32.56176  eV     1   --> A_1  D_1  S_1  
     e( 27 - 27) =     34.26742  eV     1   --> A_1  D_1  S_1  
     e( 28 - 29) =     36.57860  eV     2   --> B_1  D_3  S_3  
     e( 28 - 29) =     36.57860  eV     2   --> B_2  D_4  S_4  
     e( 30 - 30) =     37.03242  eV     1   --> A_1  D_1  S_1  
     e( 31 - 31) =     37.08101  eV     1   --> A_2  D_2  S_2  
     e( 32 - 32) =     38.03089  eV     1   -->   ?

 **************************************************************************

 **************************************************************************

                    xk=(  -0.46667,   0.00000,   0.00000  )

     Band symmetry, C_2v (mm2)  point group:

     e(  1 -  1) =     -7.33155  eV     1   --> A_1  D_1  S_1  
     e(  2 -  2) =      0.65135  eV     1   --> A_1  D_1  S_1  
     e(  3 -  4) =      2.80356  eV     2   --> B_1  D_3  S_3  
     e(  3 -  4) =      2.80356  eV     2   --> B_2  D_4  S_4  
     e(  5 -  5) =      6.61056  eV     1   --> A_1  D_1  S_1  
     e(  6 -  6) =      7.29579  eV     1   --> A_1  D_1  S_1  
     e(  7 -  8) =     10.55712  eV     2   --> B_1  D_3  S_3  
     e(  7 -  8) =     10.55712  eV     2   --> B_2  D_4  S_4  
     e(  9 -  9) =     11.07781  eV     1   --> A_1  D_1  S_1  
     e( 10 - 10) =     14.88713  eV     1   --> A_2  D_2  S_2  
     e( 11 - 11) =     15.41829  eV     1   --> A_1  D_1  S_1  
     e( 12 - 13) =     16.89258  eV     2   --> B_1  D_3  S_3  
     e( 12 - 13) =     16.89258  eV     2   --> B_2  D_4  S_4  
     e( 14 - 14) =     17.36825  eV     1   --> A_1  D_1  S_1  
     e( 15 - 16) =     21.90906  eV     2   --> B_1  D_3  S_3  
     e( 15 - 16) =     21.90906  eV     2   --> B_2  D_4  S_4  
     e( 17 - 17) =     23.20423  eV     1   --> A_1  D_1  S_1  
     e( 18 - 18) =     23.40277  eV     1   --> A_2  D_2  S_2  
     e( 19 - 19) =     23.57012  eV     1   --> A_1  D_1  S_1  
     e( 20 - 20) =     29.27397  eV     1   --> A_1  D_1  S_1  
     e( 21 - 22) =     29.60304  eV     2   --> B_1  D_3  S_3  
     e( 21 - 22) =     29.60304  eV     2   --> B_2  D_4  S_4  
     e( 23 - 23) =     30.82110  eV     1   --> A_1  D_1  S_1  
     e( 24 - 25) =     32.23323  eV     2   --> B_1  D_3  S_3  
     e( 24 - 25) =     32.23323  eV     2   --> B_2  D_4  S_4  
     e( 26 - 26) =     32.51925  eV     1   --> A_1  D_1  S_1  
     e( 27 - 27) =     34.00150  eV     1   --> A_1  D_1  S_1  
     e( 28 - 29) =     36.87247  eV     2   --> B_1  D_3  S_3  
     e( 28 - 29) =     36.87247  eV     2   --> B_2  D_4  S_4  
     e( 30 - 30) =     36.90980  eV     1   --> A_1  D_1  S_1  
     e( 31 - 31) =     37.27381  eV     1   --> A_2  D_2  S_2  
     e( 32 - 32) =     37.91875  eV     1   -->   ?

 **************************************************************************

 **************************************************************************

                    xk=(  -0.48333,   0.00000,   0.00000  )

     Band symmetry, C_2v (mm2)  point group:

     e(  1 -  1) =     -7.28601  eV     1   --> A_1  D_1  S_1  
     e(  2 -  2) =      0.53100  eV     1   --> A_1  D_1  S_1  
     e(  3 -  4) =      2.74353  eV     2   --> B_1  D_3  S_3  
     e(  3 -  4) =      2.74353  eV     2   --> B_2  D_4  S_4  
     e(  5 -  5) =      6.54993  eV     1   --> A_1  D_1  S_1  
     e(  6 -  6) =      7.30496  eV     1   --> A_1  D_1  S_1  
     e(  7 -  8) =     10.68168  eV     2   --> B_1  D_3  S_3  
     e(  7 -  8) =     10.68168  eV     2   --> B_2  D_4  S_4  
     e(  9 -  9) =     11.10116  eV     1   --> A_1  D_1  S_1  
     e( 10 - 10) =     14.94118  eV     1   --> A_2  D_2  S_2  
     e( 11 - 11) =     15.58887  eV     1   --> A_1  D_1  S_1  
     e( 12 - 13) =     17.02038  eV     2   --> B_1  D_3  S_3  
     e( 12 - 13) =     17.02038  eV     2   --> B_2  D_4  S_4  
     e( 14 - 14) =     17.47441  eV     1   --> A_1  D_1  S_1  
     e( 15 - 16) =     21.69829  eV     2   --> B_1  D_3  S_3  
     e( 15 - 16) =     21.69829  eV     2   --> B_2  D_4  S_4  
     e( 17 - 17) =     23.07151  eV     1   --> A_1  D_1  S_1  
     e( 18 - 18) =     23.20972  eV     1   --> A_2  D_2  S_2  
     e( 19 - 19) =     23.83149  eV     1   --> A_1  D_1  S_1  
     e( 20 - 20) =     29.31681  eV     1   --> A_1  D_1  S_1  
     e( 21 - 22) =     29.64281  eV     2   --> B_1  D_3  S_3  
     e( 21 - 22) =     29.64281  eV     2   --> B_2  D_4  S_4  
     e( 23 - 23) =     30.56576  eV     1   --> A_1  D_1  S_1  
     e( 24 - 25) =     31.92569  eV     2   --> B_1  D_3  S_3  
     e( 24 - 25) =     31.92569  eV     2   --> B_2  D_4  S_4  
     e( 26 - 26) =     32.47829  eV     1   --> A_1  D_1  S_1  
     e( 27 - 27) =     33.75438  eV     1   --> A_1  D_1  S_1  
     e( 28 - 28) =     36.78907  eV     1   --> A_1  D_1  S_1  
     e( 29 - 30) =     37.14911  eV     2   --> B_1  D_3  S_3  
     e( 29 - 30) =     37.14911  eV     2   --> B_2  D_4  S_4  
     e( 31 - 31) =     37.43513  eV     1   --> A_2  D_2  S_2  
     e( 32 - 32) =     37.82573  eV     1   -->   ?

 **************************************************************************

 **************************************************************************

                    xk=(  -0.50000,   0.00000,   0.00000  )

     Band symmetry, C_2v (mm2)  point group:

     e(  1 -  1) =     -7.23937  eV     1   --> A_1  D_1  S_1  
     e(  2 -  2) =      0.41178  eV     1   --> A_1  D_1  S_1  
     e(  3 -  4) =      2.68472  eV     2   --> B_1  D_3  S_3  
     e(  3 -  4) =      2.68472  eV     2   --> B_2  D_4  S_4  
     e(  5 -  5) =      6.49112  eV     1   --> A_1  D_1  S_1  
     e(  6 -  6) =      7.30399  eV     1   --> A_1  D_1  S_1  
     e(  7 -  8) =     10.80719  eV     2   --> B_1  D_3  S_3  
     e(  7 -  8) =     10.80719  eV     2   --> B_2  D_4  S_4  
     e(  9 -  9) =     11.13859  eV     1   --> A_1  D_1  S_1  
     e( 10 - 10) =     14.99697  eV     1   --> A_2  D_2  S_2  
     e( 11 - 11) =     15.75807  eV     1   --> A_1  D_1  S_1  
     e( 12 - 13) =     17.15240  eV     2   --> B_1  D_3  S_3  
     e( 12 - 13) =     17.15240  eV     2   --> B_2  D_4  S_4  
     e( 14 - 14) =     17.58553  eV     1   --> A_1  D_1  S_1  
     e( 15 - 16) =     21.48966  eV     2   --> B_1  D_3  S_3  
     e( 15 - 16) =     21.48966  eV     2   --> B_2  D_4  S_4  
     e( 17 - 17) =     22.90510  eV     1   --> A_1  D_1  S_1  
     e( 18 - 18) =     23.01928  eV     1   --> A_2  D_2  S_2  
     e( 19 - 19) =     24.13230  eV     1   --> A_1  D_1  S_1  
     e( 20 - 20) =     29.35617  eV     1   --> A_1  D_1  S_1  
     e( 21 - 22) =     29.67926  eV     2   --> B_1  D_3  S_3  
     e( 21 - 22) =     29.67926  eV     2   --> B_2  D_4  S_4  
     e( 23 - 23) =     30.30318  eV     1   --> A_1  D_1  S_1  
     e( 24 - 25) =     31.62435  eV     2   --> B_1  D_3  S_3  
     e( 24 - 25) =     31.62435  eV     2   --> B_2  D_4  S_4  
     e( 26 - 26) =     32.41880  eV     1   --> A_1  D_1  S_1  
     e( 27 - 27) =     33.53864  eV     1   --> A_1  D_1  S_1  
     e( 28 - 28) =     36.67050  eV     1   --> A_1  D_1  S_1  
     e( 29 - 30) =     37.35755  eV     2   --> B_1  D_3  S_3  
     e( 29 - 30) =     37.35755  eV     2   --> B_2  D_4  S_4  
     e( 31 - 31) =     37.56143  eV     1   --> A_2  D_2  S_2  
     e( 32 - 32) =     37.80237  eV     1   -->   ?

 **************************************************************************

 **************************************************************************

                    xk=(  -0.51667,   0.00000,   0.00000  )

     Band symmetry, C_2v (mm2)  point group:

     e(  1 -  1) =     -7.19171  eV     1   --> A_1  D_1  S_1  
     e(  2 -  2) =      0.29376  eV     1   --> A_1  D_1  S_1  
     e(  3 -  4) =      2.62720  eV     2   --> B_1  D_3  S_3  
     e(  3 -  4) =      2.62720  eV     2   --> B_2  D_4  S_4  
     e(  5 -  5) =      6.43420  eV     1   --> A_1  D_1  S_1  
     e(  6 -  6) =      7.29366  eV     1   --> A_1  D_1  S_1  
     e(  7 -  8) =     10.93355  eV     2   --> B_1  D_3  S_3  
     e(  7 -  8) =     10.93355  eV     2   --> B_2  D_4  S_4  
     e(  9 -  9) =     11.18930  eV     1   --> A_1  D_1  S_1  
     e( 10 - 10) =     15.05450  eV     1   --> A_2  D_2  S_2  
     e( 11 - 11) =     15.92522  eV     1   --> A_1  D_1  S_1  
     e( 12 - 13) =     17.28856  eV     2   --> B_1  D_3  S_3  
     e( 12 - 13) =     17.28856  eV     2   --> B_2  D_4  S_4  
     e( 14 - 14) =     17.70189  eV     1   --> A_1  D_1  S_1  
     e( 15 - 16) =     21.28325  eV     2   --> B_1  D_3  S_3  
     e( 15 - 16) =     21.28325  eV     2   --> B_2  D_4  S_4  
     e( 17 - 17) =     22.73539  eV     1   --> A_1  D_1  S_1  
     e( 18 - 18) =     22.83147  eV     1   --> A_2  D_2  S_2  
     e( 19 - 19) =     24.44238  eV     1   --> A_1  D_1  S_1  
     e( 20 - 20) =     29.38452  eV     1   --> A_1  D_1  S_1  
     e( 21 - 22) =     29.70946  eV     2   --> B_1  D_3  S_3  
     e( 21 - 22) =     29.70946  eV     2   --> B_2  D_4  S_4  
     e( 23 - 23) =     30.04600  eV     1   --> A_1  D_1  S_1  
     e( 24 - 25) =     31.33217  eV     2   --> B_1  D_3  S_3  
     e( 24 - 25) =     31.33217  eV     2   --> B_2  D_4  S_4  
     e( 26 - 26) =     32.32041  eV     1   --> A_1  D_1  S_1  
     e( 27 - 27) =     33.37007  eV     1   --> A_1  D_1  S_1  
     e( 28 - 28) =     36.55440  eV     1   --> A_1  D_1  S_1  
     e( 29 - 30) =     37.39335  eV     2   --> B_1  D_3  S_3  
     e( 29 - 30) =     37.39335  eV     2   --> B_2  D_4  S_4  
     e( 31 - 31) =     37.65288  eV     1   --> A_2  D_2  S_2  
     e( 32 - 32) =     37.95255  eV     1   -->   ?

 **************************************************************************

 **************************************************************************

                    xk=(  -0.53333,   0.00000,   0.00000  )

     Band symmetry, C_2v (mm2)  point group:

     e(  1 -  1) =     -7.14310  eV     1   --> A_1  D_1  S_1  
     e(  2 -  2) =      0.17703  eV     1   --> A_1  D_1  S_1  
     e(  3 -  4) =      2.57107  eV     2   --> B_1  D_3  S_3  
     e(  3 -  4) =      2.57107  eV     2   --> B_2  D_4  S_4  
     e(  5 -  5) =      6.37921  eV     1   --> A_1  D_1  S_1  
     e(  6 -  6) =      7.27490  eV     1   --> A_1  D_1  S_1  
     e(  7 -  8) =     11.06067  eV     2   --> B_1  D_3  S_3  
     e(  7 -  8) =     11.06067  eV     2   --> B_2  D_4  S_4  
     e(  9 -  9) =     11.25229  eV     1   --> A_1  D_1  S_1  
     e( 10 - 10) =     15.11371  eV     1   --> A_2  D_2  S_2  
     e( 11 - 11) =     16.08955  eV     1   --> A_1  D_1  S_1  
     e( 12 - 13) =     17.42878  eV     2   --> B_1  D_3  S_3  
     e( 12 - 13) =     17.42878  eV     2   --> B_2  D_4  S_4  
     e( 14 - 14) =     17.82379  eV     1   --> A_1  D_1  S_1  
     e( 15 - 16) =     21.07914  eV     2   --> B_1  D_3  S_3  
     e( 15 - 16) =     21.07914  eV     2   --> B_2  D_4  S_4  
     e( 17 - 17) =     22.56761  eV     1   --> A_1  D_1  S_1  
     e( 18 - 18) =     22.64633  eV     1   --> A_2  D_2  S_2  
     e( 19 - 19) =     24.75674  eV     1   --> A_1  D_1  S_1  
     e( 20 - 20) =     29.37540  eV     1   --> A_1  D_1  S_1  
     e( 21 - 22) =     29.72793  eV     2   --> B_1  D_3  S_3  
     e( 21 - 22) =     29.72793  eV     2   --> B_2  D_4  S_4  
     e( 23 - 23) =     29.82388  eV     1   --> A_1  D_1  S_1  
     e( 24 - 25) =     31.05465  eV     2   --> B_1  D_3  S_3  
     e( 24 - 25) =     31.05465  eV     2   --> B_2  D_4  S_4  
     e( 26 - 26) =     32.17023  eV     1   --> A_1  D_1  S_1  
     e( 27 - 27) =     33.25881  eV     1   --> A_1  D_1  S_1  
     e( 28 - 28) =     36.44111  eV     1   --> A_1  D_1  S_1  
     e( 29 - 30) =     37.31941  eV     2   --> B_1  D_3  S_3  
     e( 29 - 30) =     37.31941  eV     2   --> B_2  D_4  S_4  
     e( 31 - 31) =     37.71327  eV     1   --> A_2  D_2  S_2  
     e( 32 - 32) =     38.21235  eV     1   -->   ?

 **************************************************************************

 **************************************************************************

                    xk=(  -0.55000,   0.00000,   0.00000  )

     Band symmetry, C_2v (mm2)  point group:

     e(  1 -  1) =     -7.09362  eV     1   --> A_1  D_1  S_1  
     e(  2 -  2) =      0.06166  eV     1   --> A_1  D_1  S_1  
     e(  3 -  4) =      2.51639  eV     2   --> B_1  D_3  S_3  
     e(  3 -  4) =      2.51639  eV     2   --> B_2  D_4  S_4  
     e(  5 -  5) =      6.32621  eV     1   --> A_1  D_1  S_1  
     e(  6 -  6) =      7.24875  eV     1   --> A_1  D_1  S_1  
     e(  7 -  8) =     11.18846  eV     2   --> B_1  D_3  S_3  
     e(  7 -  8) =     11.18846  eV     2   --> B_2  D_4  S_4  
     e(  9 -  9) =     11.32646  eV     1   --> A_1  D_1  S_1  
     e( 10 - 10) =     15.17459  eV     1   --> A_2  D_2  S_2  
     e( 11 - 11) =     16.25026  eV     1   --> A_1  D_1  S_1  
     e( 12 - 13) =     17.57296  eV     2   --> B_1  D_3  S_3  
     e( 12 - 13) =     17.57296  eV     2   --> B_2  D_4  S_4  
     e( 14 - 14) =     17.95148  eV     1   --> A_1  D_1  S_1  
[...]
     e( 16 - 16) =     21.76169  eV     1   --> A''            
     e( 17 - 17) =     23.56219  eV     1   --> A'             
     e( 18 - 18) =     24.03883  eV     1   --> A''            
     e( 19 - 19) =     24.57377  eV     1   --> A'             
     e( 20 - 20) =     25.63162  eV     1   --> A'             
     e( 21 - 21) =     25.71671  eV     1   --> A''            
     e( 22 - 22) =     26.73024  eV     1   --> A'             
     e( 23 - 23) =     27.89520  eV     1   --> A'             
     e( 24 - 24) =     29.55822  eV     1   --> A''            
     e( 25 - 25) =     29.57765  eV     1   --> A'             
     e( 26 - 26) =     31.31127  eV     1   --> A''            
     e( 27 - 27) =     31.79733  eV     1   --> A'             
     e( 28 - 28) =     32.48497  eV     1   --> A'             
     e( 29 - 29) =     34.61169  eV     1   --> A'             
     e( 30 - 30) =     35.77533  eV     1   --> A''            
     e( 31 - 31) =     36.59158  eV     1   --> A'             
     e( 32 - 32) =     36.92380  eV     1   --> A''            

 **************************************************************************

 **************************************************************************

                    xk=(  -0.72083,   0.72083,   0.05833  )

     Band symmetry, C_s (m)     point group:

     e(  1 -  1) =     -6.10300  eV     1   --> A'             
     e(  2 -  2) =     -1.68687  eV     1   --> A'             
     e(  3 -  3) =      0.65685  eV     1   --> A'             
     e(  4 -  4) =      2.24725  eV     1   --> A''            
     e(  5 -  5) =      6.43953  eV     1   --> A'             
     e(  6 -  6) =      9.18694  eV     1   --> A'             
     e(  7 -  7) =     11.40457  eV     1   --> A'             
     e(  8 -  8) =     11.70641  eV     1   --> A''            
     e(  9 -  9) =     12.37060  eV     1   --> A'             
     e( 10 - 10) =     14.31955  eV     1   --> A''            
     e( 11 - 11) =     17.63135  eV     1   --> A'             
     e( 12 - 12) =     18.49805  eV     1   --> A'             
     e( 13 - 13) =     19.60941  eV     1   --> A''            
     e( 14 - 14) =     19.90732  eV     1   --> A'             
     e( 15 - 15) =     20.98769  eV     1   --> A'             
     e( 16 - 16) =     21.66757  eV     1   --> A''            
     e( 17 - 17) =     23.60979  eV     1   --> A'             
     e( 18 - 18) =     24.04714  eV     1   --> A''            
     e( 19 - 19) =     24.60837  eV     1   --> A'             
     e( 20 - 20) =     25.53940  eV     1   --> A'             
     e( 21 - 21) =     25.57137  eV     1   --> A''            
     e( 22 - 22) =     26.77962  eV     1   --> A'             
     e( 23 - 23) =     27.89673  eV     1   --> A'             
     e( 24 - 24) =     29.40795  eV     1   --> A'             
     e( 25 - 25) =     29.65253  eV     1   --> A''            
     e( 26 - 26) =     31.33736  eV     1   --> A''            
     e( 27 - 27) =     31.86967  eV     1   --> A'             
     e( 28 - 28) =     32.53575  eV     1   --> A'             
     e( 29 - 29) =     34.76133  eV     1   --> A'             
     e( 30 - 30) =     35.77462  eV     1   --> A''            
     e( 31 - 31) =     36.60315  eV     1   --> A'             
     e( 32 - 32) =     36.90858  eV     1   --> A''            

 **************************************************************************

 **************************************************************************

                    xk=(  -0.72500,   0.72500,   0.05000  )

     Band symmetry, C_s (m)     point group:

     e(  1 -  1) =     -6.09443  eV     1   --> A'             
     e(  2 -  2) =     -1.69334  eV     1   --> A'             
     e(  3 -  3) =      0.65318  eV     1   --> A'             
     e(  4 -  4) =      2.23079  eV     1   --> A''            
     e(  5 -  5) =      6.42274  eV     1   --> A'             
     e(  6 -  6) =      9.13269  eV     1   --> A'             
     e(  7 -  7) =     11.49125  eV     1   --> A'             
     e(  8 -  8) =     11.76661  eV     1   --> A''            
     e(  9 -  9) =     12.34073  eV     1   --> A'             
     e( 10 - 10) =     14.33548  eV     1   --> A''            
     e( 11 - 11) =     17.69865  eV     1   --> A'             
     e( 12 - 12) =     18.56987  eV     1   --> A'             
     e( 13 - 13) =     19.61821  eV     1   --> A''            
     e( 14 - 14) =     19.84922  eV     1   --> A'             
     e( 15 - 15) =     20.94221  eV     1   --> A'             
     e( 16 - 16) =     21.57913  eV     1   --> A''            
     e( 17 - 17) =     23.65584  eV     1   --> A'             
     e( 18 - 18) =     24.05750  eV     1   --> A''            
     e( 19 - 19) =     24.64740  eV     1   --> A'             
     e( 20 - 20) =     25.42920  eV     1   --> A''            
     e( 21 - 21) =     25.44632  eV     1   --> A'             
     e( 22 - 22) =     26.83216  eV     1   --> A'             
     e( 23 - 23) =     27.89479  eV     1   --> A'             
     e( 24 - 24) =     29.24912  eV     1   --> A'             
     e( 25 - 25) =     29.74632  eV     1   --> A''            
     e( 26 - 26) =     31.36436  eV     1   --> A''            
     e( 27 - 27) =     31.93660  eV     1   --> A'             
     e( 28 - 28) =     32.59130  eV     1   --> A'             
     e( 29 - 29) =     34.91214  eV     1   --> A'             
     e( 30 - 30) =     35.77103  eV     1   --> A''            
     e( 31 - 31) =     36.59436  eV     1   --> A'             
     e( 32 - 32) =     36.89909  eV     1   --> A''            

 **************************************************************************

 **************************************************************************

                    xk=(  -0.72917,   0.72917,   0.04167  )

     Band symmetry, C_s (m)     point group:

     e(  1 -  1) =     -6.08655  eV     1   --> A'             
     e(  2 -  2) =     -1.69992  eV     1   --> A'             
     e(  3 -  3) =      0.65215  eV     1   --> A'             
     e(  4 -  4) =      2.21488  eV     1   --> A''            
     e(  5 -  5) =      6.40645  eV     1   --> A'             
     e(  6 -  6) =      9.07603  eV     1   --> A'             
     e(  7 -  7) =     11.57911  eV     1   --> A'             
     e(  8 -  8) =     11.82435  eV     1   --> A''            
     e(  9 -  9) =     12.31364  eV     1   --> A'             
     e( 10 - 10) =     14.35535  eV     1   --> A''            
     e( 11 - 11) =     17.75080  eV     1   --> A'             
     e( 12 - 12) =     18.64988  eV     1   --> A'             
     e( 13 - 13) =     19.61873  eV     1   --> A''            
     e( 14 - 14) =     19.79360  eV     1   --> A'             
     e( 15 - 15) =     20.89705  eV     1   --> A'             
     e( 16 - 16) =     21.49733  eV     1   --> A''            
     e( 17 - 17) =     23.69863  eV     1   --> A'             
     e( 18 - 18) =     24.06878  eV     1   --> A''            
     e( 19 - 19) =     24.69025  eV     1   --> A'             
     e( 20 - 20) =     25.29125  eV     1   --> A''            
     e( 21 - 21) =     25.35510  eV     1   --> A'             
     e( 22 - 22) =     26.88675  eV     1   --> A'             
     e( 23 - 23) =     27.88492  eV     1   --> A'             
     e( 24 - 24) =     29.10574  eV     1   --> A'             
     e( 25 - 25) =     29.83931  eV     1   --> A''            
     e( 26 - 26) =     31.39244  eV     1   --> A''            
     e( 27 - 27) =     31.99697  eV     1   --> A'             
     e( 28 - 28) =     32.65262  eV     1   --> A'             
     e( 29 - 29) =     35.06348  eV     1   --> A'             
     e( 30 - 30) =     35.76474  eV     1   --> A''            
     e( 31 - 31) =     36.54974  eV     1   --> A'             
     e( 32 - 32) =     36.89522  eV     1   --> A''            

 **************************************************************************

 **************************************************************************

                    xk=(  -0.73333,   0.73333,   0.03333  )

     Band symmetry, C_s (m)     point group:

     e(  1 -  1) =     -6.07940  eV     1   --> A'             
     e(  2 -  2) =     -1.70649  eV     1   --> A'             
     e(  3 -  3) =      0.65369  eV     1   --> A'             
     e(  4 -  4) =      2.19955  eV     1   --> A''            
     e(  5 -  5) =      6.39070  eV     1   --> A'             
     e(  6 -  6) =      9.01750  eV     1   --> A'             
     e(  7 -  7) =     11.66627  eV     1   --> A'             
     e(  8 -  8) =     11.87943  eV     1   --> A''            
     e(  9 -  9) =     12.29065  eV     1   --> A'             
     e( 10 - 10) =     14.37936  eV     1   --> A''            
     e( 11 - 11) =     17.78783  eV     1   --> A'             
     e( 12 - 12) =     18.73623  eV     1   --> A'             
     e( 13 - 13) =     19.61023  eV     1   --> A''            
     e( 14 - 14) =     19.74179  eV     1   --> A'             
     e( 15 - 15) =     20.85341  eV     1   --> A'             
     e( 16 - 16) =     21.42302  eV     1   --> A''            
     e( 17 - 17) =     23.73625  eV     1   --> A'             
     e( 18 - 18) =     24.07931  eV     1   --> A''            
     e( 19 - 19) =     24.73597  eV     1   --> A'             
     e( 20 - 20) =     25.15910  eV     1   --> A''            
     e( 21 - 21) =     25.26877  eV     1   --> A'             
     e( 22 - 22) =     26.94225  eV     1   --> A'             
     e( 23 - 23) =     27.86169  eV     1   --> A'             
     e( 24 - 24) =     28.98364  eV     1   --> A'             
     e( 25 - 25) =     29.93117  eV     1   --> A''            
     e( 26 - 26) =     31.42182  eV     1   --> A''            
     e( 27 - 27) =     32.04996  eV     1   --> A'             
     e( 28 - 28) =     32.72040  eV     1   --> A'             
     e( 29 - 29) =     35.21451  eV     1   --> A'             
     e( 30 - 30) =     35.75603  eV     1   --> A''            
     e( 31 - 31) =     36.46096  eV     1   --> A'             
     e( 32 - 32) =     36.89676  eV     1   --> A''            

 **************************************************************************

 **************************************************************************

                    xk=(  -0.73750,   0.73750,   0.02500  )

     Band symmetry, C_s (m)     point group:

     e(  1 -  1) =     -6.07304  eV     1   --> A'             
     e(  2 -  2) =     -1.71292  eV     1   --> A'             
     e(  3 -  3) =      0.65771  eV     1   --> A'             
     e(  4 -  4) =      2.18481  eV     1   --> A''            
     e(  5 -  5) =      6.37552  eV     1   --> A'             
     e(  6 -  6) =      8.95754  eV     1   --> A'             
     e(  7 -  7) =     11.74987  eV     1   --> A'             
     e(  8 -  8) =     11.93163  eV     1   --> A''            
     e(  9 -  9) =     12.27411  eV     1   --> A'             
     e( 10 - 10) =     14.40764  eV     1   --> A''            
     e( 11 - 11) =     17.81069  eV     1   --> A'             
     e( 12 - 12) =     18.82513  eV     1   --> A'             
     e( 13 - 13) =     19.59211  eV     1   --> A''            
     e( 14 - 14) =     19.69616  eV     1   --> A'             
     e( 15 - 15) =     20.81239  eV     1   --> A'             
     e( 16 - 16) =     21.35689  eV     1   --> A''            
     e( 17 - 17) =     23.76654  eV     1   --> A'             
     e( 18 - 18) =     24.08659  eV     1   --> A''            
     e( 19 - 19) =     24.78277  eV     1   --> A'             
     e( 20 - 20) =     25.03524  eV     1   --> A''            
     e( 21 - 21) =     25.19131  eV     1   --> A'             
     e( 22 - 22) =     26.99725  eV     1   --> A'             
     e( 23 - 23) =     27.81980  eV     1   --> A'             
     e( 24 - 24) =     28.88900  eV     1   --> A'             
     e( 25 - 25) =     30.02155  eV     1   --> A''            
     e( 26 - 26) =     31.45278  eV     1   --> A''            
     e( 27 - 27) =     32.09520  eV     1   --> A'             
     e( 28 - 28) =     32.79489  eV     1   --> A'             
     e( 29 - 29) =     35.36389  eV     1   --> A'             
     e( 30 - 30) =     35.74529  eV     1   --> A''            
     e( 31 - 31) =     36.33604  eV     1   --> A'             
     e( 32 - 32) =     36.90343  eV     1   --> A''            

 **************************************************************************

 **************************************************************************

                    xk=(  -0.74167,   0.74167,   0.01667  )

     Band symmetry, C_s (m)     point group:

     e(  1 -  1) =     -6.06750  eV     1   --> A'             
     e(  2 -  2) =     -1.71909  eV     1   --> A'             
     e(  3 -  3) =      0.66414  eV     1   --> A'             
     e(  4 -  4) =      2.17067  eV     1   --> A''            
     e(  5 -  5) =      6.36094  eV     1   --> A'             
     e(  6 -  6) =      8.89651  eV     1   --> A'             
     e(  7 -  7) =     11.82532  eV     1   --> A'             
     e(  8 -  8) =     11.98081  eV     1   --> A''            
     e(  9 -  9) =     12.26819  eV     1   --> A'             
     e( 10 - 10) =     14.44034  eV     1   --> A''            
     e( 11 - 11) =     17.82078  eV     1   --> A'             
     e( 12 - 12) =     18.91052  eV     1   --> A'             
     e( 13 - 13) =     19.56401  eV     1   --> A''            
     e( 14 - 14) =     19.66094  eV     1   --> A'             
     e( 15 - 15) =     20.77499  eV     1   --> A'             
     e( 16 - 16) =     21.29941  eV     1   --> A''            
     e( 17 - 17) =     23.78713  eV     1   --> A'             
     e( 18 - 18) =     24.08674  eV     1   --> A''            
     e( 19 - 19) =     24.82691  eV     1   --> A'             
     e( 20 - 20) =     24.92346  eV     1   --> A''            
     e( 21 - 21) =     25.12875  eV     1   --> A'             
     e( 22 - 22) =     27.04956  eV     1   --> A'             
     e( 23 - 23) =     27.75674  eV     1   --> A'             
     e( 24 - 24) =     28.82619  eV     1   --> A'             
     e( 25 - 25) =     30.11003  eV     1   --> A''            
     e( 26 - 26) =     31.48563  eV     1   --> A''            
     e( 27 - 27) =     32.13277  eV     1   --> A'             
     e( 28 - 28) =     32.87585  eV     1   --> A'             
     e( 29 - 29) =     35.50884  eV     1   --> A'             
     e( 30 - 30) =     35.73293  eV     1   --> A''            
     e( 31 - 31) =     36.18937  eV     1   --> A'             
     e( 32 - 32) =     36.91486  eV     1   --> A''            

 **************************************************************************

 **************************************************************************

                    xk=(  -0.74583,   0.74583,   0.00833  )

     Band symmetry, C_s (m)     point group:

     e(  1 -  1) =     -6.06283  eV     1   --> A'             
     e(  2 -  2) =     -1.72486  eV     1   --> A'             
     e(  3 -  3) =      0.67286  eV     1   --> A'             
     e(  4 -  4) =      2.15715  eV     1   --> A''            
     e(  5 -  5) =      6.34699  eV     1   --> A'             
     e(  6 -  6) =      8.83472  eV     1   --> A'             
     e(  7 -  7) =     11.88570  eV     1   --> A'             
     e(  8 -  8) =     12.02680  eV     1   --> A''            
     e(  9 -  9) =     12.27944  eV     1   --> A'             
     e( 10 - 10) =     14.47754  eV     1   --> A''            
     e( 11 - 11) =     17.81963  eV     1   --> A'             
     e( 12 - 12) =     18.98350  eV     1   --> A'             
     e( 13 - 13) =     19.52584  eV     1   --> A''            
     e( 14 - 14) =     19.64304  eV     1   --> A'             
     e( 15 - 15) =     20.74212  eV     1   --> A'             
     e( 16 - 16) =     21.25075  eV     1   --> A''            
     e( 17 - 17) =     23.79554  eV     1   --> A'             
     e( 18 - 18) =     24.07427  eV     1   --> A''            
     e( 19 - 19) =     24.82925  eV     1   --> A''            
     e( 20 - 20) =     24.86035  eV     1   --> A'             
     e( 21 - 21) =     25.09150  eV     1   --> A'             
     e( 22 - 22) =     27.09492  eV     1   --> A'             
     e( 23 - 23) =     27.67625  eV     1   --> A'             
     e( 24 - 24) =     28.79550  eV     1   --> A'             
     e( 25 - 25) =     30.19614  eV     1   --> A''            
     e( 26 - 26) =     31.52077  eV     1   --> A''            
     e( 27 - 27) =     32.16306  eV     1   --> A'             
     e( 28 - 28) =     32.96273  eV     1   --> A'             
     e( 29 - 29) =     35.64050  eV     1   --> A'             
     e( 30 - 30) =     35.71942  eV     1   --> A''            
     e( 31 - 31) =     36.03820  eV     1   --> A'             
     e( 32 - 32) =     36.91877  eV     1   --> A'             

 **************************************************************************

 **************************************************************************

                    xk=(  -0.75000,   0.75000,   0.00000  )

     Band symmetry, C_s (m)     point group:

     e(  1 -  1) =     -6.05908  eV     1   --> A'             
     e(  2 -  2) =     -1.73011  eV     1   --> A'             
     e(  3 -  3) =      0.68381  eV     1   --> A'             
     e(  4 -  4) =      2.14425  eV     1   --> A''            
     e(  5 -  5) =      6.33370  eV     1   --> A'             
     e(  6 -  6) =      8.77242  eV     1   --> A'             
     e(  7 -  7) =     11.92410  eV     1   --> A'             
     e(  8 -  8) =     12.06952  eV     1   --> A''            
     e(  9 -  9) =     12.31442  eV     1   --> A'             
     e( 10 - 10) =     14.51933  eV     1   --> A''            
     e( 11 - 11) =     17.80862  eV     1   --> A'             
     e( 12 - 12) =     19.03330  eV     1   --> A'             
     e( 13 - 13) =     19.47785  eV     1   --> A''            
     e( 14 - 14) =     19.65135  eV     1   --> A'             
     e( 15 - 15) =     20.71467  eV     1   --> A'             
     e( 16 - 16) =     21.21073  eV     1   --> A''            
     e( 17 - 17) =     23.78953  eV     1   --> A'             
     e( 18 - 18) =     24.04273  eV     1   --> A''            
     e( 19 - 19) =     24.75899  eV     1   --> A''            
     e( 20 - 20) =     24.87272  eV     1   --> A'             
     e( 21 - 21) =     25.09189  eV     1   --> A'             
     e( 22 - 22) =     27.12390  eV     1   --> A'             
     e( 23 - 23) =     27.59142  eV     1   --> A'             
     e( 24 - 24) =     28.79324  eV     1   --> A'             
     e( 25 - 25) =     30.27935  eV     1   --> A''            
     e( 26 - 26) =     31.55864  eV     1   --> A''            
     e( 27 - 27) =     32.18661  eV     1   --> A'             
     e( 28 - 28) =     33.05476  eV     1   --> A'             
     e( 29 - 29) =     35.70521  eV     1   --> A''            
     e( 30 - 30) =     35.70624  eV     1   --> A'             
     e( 31 - 31) =     35.93949  eV     1   --> A'             
     e( 32 - 32) =     36.90508  eV     1   --> A'             

 **************************************************************************
 
     BANDS        :     20.57s CPU     25.65s WALL

 
   This run was terminated on:  10:25:27   1Feb2023            

=------------------------------------------------------------------------------=
   JOB DONE.
=------------------------------------------------------------------------------=
