
     Program PWSCF v.7.1 starts on  1Feb2023 at 10:23:30 

     This program is part of the open-source Quantum ESPRESSO suite
     for quantum simulation of materials; please cite
         "P. Giannozzi et al., J. Phys.:Condens. Matter 21 395502 (2009);
         "P. Giannozzi et al., J. Phys.:Condens. Matter 29 465901 (2017);
         "P. Giannozzi et al., J. Chem. Phys. 152 154105 (2020);
          URL http://www.quantum-espresso.org", 
     in publications or presentations arising from this work. More details at
     http://www.quantum-espresso.org/quote

     Parallel version (MPI), running on    20 processors

     MPI processes distributed on     1 nodes
     118942 MiB available memory on the printing compute node when the environment starts
 
     Waiting for input...
     Reading input from standard input

     Current dimensions of program PWSCF are:
     Max number of different atomic species (ntypx) = 10
     Max number of k-points (npk) =  40000
     Max angular momentum in pseudopotentials (lmaxx) =  4

     Atomic positions and unit cell read from directory:
     ./work/InAs.save/
     Atomic positions from file used, from input discarded
 
 
     R & G space division:  proc/nbgrp/npool/nimage =      20
     Subspace diagonalization in iterative solution of the eigenvalue problem:
     a serial algorithm will be used

 
     Parallelization info
     --------------------
     sticks:   dense  smooth     PW     G-vecs:    dense   smooth      PW
     Min          69      69     19                 1690     1690     252
     Max          70      70     21                 1692     1692     254
     Sum        1381    1381    385                33823    33823    5065
 
     Using Slab Decomposition
 


     bravais-lattice index     =            2
     lattice parameter (alat)  =      11.1863  a.u.
     unit-cell volume          =     349.9403 (a.u.)^3
     number of atoms/cell      =            2
     number of atomic types    =            2
     number of electrons       =         8.00
     number of Kohn-Sham states=           32
     kinetic-energy cutoff     =      80.0000  Ry
     charge density cutoff     =     320.0000  Ry
     Exchange-correlation= SLA-PZ-NOGX-NOGC
                           (   1   1   0   0   0   0   0)

     celldm(1)=  11.186253  celldm(2)=   0.000000  celldm(3)=   0.000000
     celldm(4)=   0.000000  celldm(5)=   0.000000  celldm(6)=   0.000000

     crystal axes: (cart. coord. in units of alat)
               a(1) = (  -0.500000   0.000000   0.500000 )  
               a(2) = (   0.000000   0.500000   0.500000 )  
               a(3) = (  -0.500000   0.500000   0.000000 )  

     reciprocal axes: (cart. coord. in units 2 pi/alat)
               b(1) = ( -1.000000 -1.000000  1.000000 )  
               b(2) = (  1.000000  1.000000  1.000000 )  
               b(3) = ( -1.000000  1.000000 -1.000000 )  


     PseudoPot. # 1 for In read from file:
     ../../pseudo/In.pz-hgh.upf
     MD5 check sum: 6872a669b76e2059a5c804d9a9b24c5c
     Pseudo is Norm-conserving, Zval =  3.0
     Generated in analytical, separable form
     Using radial grid of 1241 points,  6 beta functions with: 
                l(1) =   0
                l(2) =   0
                l(3) =   0
                l(4) =   1
                l(5) =   1
                l(6) =   2

     PseudoPot. # 2 for As read from file:
     ../../pseudo/As.pz-hgh.upf
     MD5 check sum: 8bce9ee3be4f31c0b3268c76e624ca74
     Pseudo is Norm-conserving, Zval =  5.0
     Generated in analytical, separable form
     Using radial grid of 1209 points,  6 beta functions with: 
                l(1) =   0
                l(2) =   0
                l(3) =   0
                l(4) =   1
                l(5) =   1
                l(6) =   2

     atomic species   valence    mass     pseudopotential
        In             3.00   114.81800     In( 1.00)
        As             5.00    74.92160     As( 1.00)

     24 Sym. Ops. (no inversion) found


                                    s                        frac. trans.

      isym =  1     identity                                     

 cryst.   s( 1) = (     1          0          0      )
                  (     0          1          0      )
                  (     0          0          1      )

 cart.    s( 1) = (  1.0000000  0.0000000  0.0000000 )
                  (  0.0000000  1.0000000  0.0000000 )
                  (  0.0000000  0.0000000  1.0000000 )


      isym =  2     180 deg rotation - cart. axis [0,0,1]        

 cryst.   s( 2) = (     0          1         -1      )
                  (     1          0         -1      )
                  (     0          0         -1      )

 cart.    s( 2) = ( -1.0000000  0.0000000  0.0000000 )
                  (  0.0000000 -1.0000000  0.0000000 )
                  (  0.0000000  0.0000000  1.0000000 )


      isym =  3     180 deg rotation - cart. axis [0,1,0]        

 cryst.   s( 3) = (    -1          0          0      )
                  (    -1          0          1      )
                  (    -1          1          0      )

 cart.    s( 3) = ( -1.0000000  0.0000000  0.0000000 )
                  (  0.0000000  1.0000000  0.0000000 )
                  (  0.0000000  0.0000000 -1.0000000 )


      isym =  4     180 deg rotation - cart. axis [1,0,0]        

 cryst.   s( 4) = (     0         -1          1      )
                  (     0         -1          0      )
                  (     1         -1          0      )

 cart.    s( 4) = (  1.0000000  0.0000000  0.0000000 )
                  (  0.0000000 -1.0000000  0.0000000 )
                  (  0.0000000  0.0000000 -1.0000000 )


      isym =  5     120 deg rotation - cart. axis [-1,-1,-1]     

 cryst.   s( 5) = (    -1          0          1      )
                  (    -1          1          0      )
                  (    -1          0          0      )

 cart.    s( 5) = (  0.0000000  1.0000000  0.0000000 )
                  (  0.0000000  0.0000000  1.0000000 )
                  (  1.0000000  0.0000000  0.0000000 )


      isym =  6     120 deg rotation - cart. axis [-1,1,1]       

 cryst.   s( 6) = (     0          1          0      )
                  (     0          0          1      )
                  (     1          0          0      )

 cart.    s( 6) = (  0.0000000 -1.0000000  0.0000000 )
                  (  0.0000000  0.0000000  1.0000000 )
                  ( -1.0000000  0.0000000  0.0000000 )


      isym =  7     120 deg rotation - cart. axis [1,1,-1]       

 cryst.   s( 7) = (     1          0         -1      )
                  (     0          0         -1      )
                  (     0          1         -1      )

 cart.    s( 7) = (  0.0000000  1.0000000  0.0000000 )
                  (  0.0000000  0.0000000 -1.0000000 )
                  ( -1.0000000  0.0000000  0.0000000 )


      isym =  8     120 deg rotation - cart. axis [1,-1,1]       

 cryst.   s( 8) = (     0         -1          0      )
                  (     1         -1          0      )
                  (     0         -1          1      )

 cart.    s( 8) = (  0.0000000 -1.0000000  0.0000000 )
                  (  0.0000000  0.0000000 -1.0000000 )
                  (  1.0000000  0.0000000  0.0000000 )


      isym =  9     120 deg rotation - cart. axis [1,1,1]        

 cryst.   s( 9) = (     0          0         -1      )
                  (     0          1         -1      )
                  (     1          0         -1      )

 cart.    s( 9) = (  0.0000000  0.0000000  1.0000000 )
                  (  1.0000000  0.0000000  0.0000000 )
                  (  0.0000000  1.0000000  0.0000000 )


      isym = 10     120 deg rotation - cart. axis [-1,1,-1]      

 cryst.   s(10) = (    -1          1          0      )
                  (    -1          0          0      )
                  (    -1          0          1      )

 cart.    s(10) = (  0.0000000  0.0000000  1.0000000 )
                  ( -1.0000000  0.0000000  0.0000000 )
                  (  0.0000000 -1.0000000  0.0000000 )


      isym = 11     120 deg rotation - cart. axis [1,-1,-1]      

 cryst.   s(11) = (     0          0          1      )
                  (     1          0          0      )
                  (     0          1          0      )

 cart.    s(11) = (  0.0000000  0.0000000 -1.0000000 )
                  ( -1.0000000  0.0000000  0.0000000 )
                  (  0.0000000  1.0000000  0.0000000 )


      isym = 12     120 deg rotation - cart. axis [-1,-1,1]      

 cryst.   s(12) = (     1         -1          0      )
                  (     0         -1          1      )
                  (     0         -1          0      )

 cart.    s(12) = (  0.0000000  0.0000000 -1.0000000 )
                  (  1.0000000  0.0000000  0.0000000 )
                  (  0.0000000 -1.0000000  0.0000000 )


      isym = 13     inv. 180 deg rotation - cart. axis [1,1,0]   

 cryst.   s(13) = (     0          1          0      )
                  (     1          0          0      )
                  (     0          0          1      )

 cart.    s(13) = (  0.0000000 -1.0000000  0.0000000 )
                  ( -1.0000000  0.0000000  0.0000000 )
                  (  0.0000000  0.0000000  1.0000000 )


      isym = 14     inv. 180 deg rotation - cart. axis [1,-1,0]  

 cryst.   s(14) = (     1          0         -1      )
                  (     0          1         -1      )
                  (     0          0         -1      )

 cart.    s(14) = (  0.0000000  1.0000000  0.0000000 )
                  (  1.0000000  0.0000000  0.0000000 )
                  (  0.0000000  0.0000000  1.0000000 )


      isym = 15     inv.  90 deg rotation - cart. axis [0,0,-1]  

 cryst.   s(15) = (     0         -1          0      )
                  (     0         -1          1      )
                  (     1         -1          0      )

 cart.    s(15) = (  0.0000000 -1.0000000  0.0000000 )
                  (  1.0000000  0.0000000  0.0000000 )
                  (  0.0000000  0.0000000 -1.0000000 )


      isym = 16     inv.  90 deg rotation - cart. axis [0,0,1]   

 cryst.   s(16) = (    -1          0          1      )
                  (    -1          0          0      )
                  (    -1          1          0      )

 cart.    s(16) = (  0.0000000  1.0000000  0.0000000 )
                  ( -1.0000000  0.0000000  0.0000000 )
                  (  0.0000000  0.0000000 -1.0000000 )


      isym = 17     inv. 180 deg rotation - cart. axis [1,0,1]   

 cryst.   s(17) = (     1          0          0      )
                  (     0          0          1      )
                  (     0          1          0      )

 cart.    s(17) = (  0.0000000  0.0000000 -1.0000000 )
                  (  0.0000000  1.0000000  0.0000000 )
                  ( -1.0000000  0.0000000  0.0000000 )


      isym = 18     inv. 180 deg rotation - cart. axis [-1,0,1]  

 cryst.   s(18) = (    -1          0          0      )
                  (    -1          1          0      )
                  (    -1          0          1      )

 cart.    s(18) = (  0.0000000  0.0000000  1.0000000 )
                  (  0.0000000  1.0000000  0.0000000 )
                  (  1.0000000  0.0000000  0.0000000 )


      isym = 19     inv.  90 deg rotation - cart. axis [0,1,0]   

 cryst.   s(19) = (     0         -1          1      )
                  (     1         -1          0      )
                  (     0         -1          0      )

 cart.    s(19) = (  0.0000000  0.0000000 -1.0000000 )
                  (  0.0000000 -1.0000000  0.0000000 )
                  (  1.0000000  0.0000000  0.0000000 )


      isym = 20     inv.  90 deg rotation - cart. axis [0,-1,0]  

 cryst.   s(20) = (     0          1         -1      )
                  (     0          0         -1      )
                  (     1          0         -1      )

 cart.    s(20) = (  0.0000000  0.0000000  1.0000000 )
                  (  0.0000000 -1.0000000  0.0000000 )
                  ( -1.0000000  0.0000000  0.0000000 )


      isym = 21     inv. 180 deg rotation - cart. axis [0,1,1]   

 cryst.   s(21) = (     1         -1          0      )
                  (     0         -1          0      )
                  (     0         -1          1      )

 cart.    s(21) = (  1.0000000  0.0000000  0.0000000 )
                  (  0.0000000  0.0000000 -1.0000000 )
                  (  0.0000000 -1.0000000  0.0000000 )


      isym = 22     inv. 180 deg rotation - cart. axis [0,1,-1]  

 cryst.   s(22) = (     0          0          1      )
                  (     0          1          0      )
                  (     1          0          0      )

 cart.    s(22) = (  1.0000000  0.0000000  0.0000000 )
                  (  0.0000000  0.0000000  1.0000000 )
                  (  0.0000000  1.0000000  0.0000000 )


      isym = 23     inv.  90 deg rotation - cart. axis [-1,0,0]  

 cryst.   s(23) = (     0          0         -1      )
                  (     1          0         -1      )
                  (     0          1         -1      )

 cart.    s(23) = ( -1.0000000  0.0000000  0.0000000 )
                  (  0.0000000  0.0000000 -1.0000000 )
                  (  0.0000000  1.0000000  0.0000000 )


      isym = 24     inv.  90 deg rotation - cart. axis [1,0,0]   

 cryst.   s(24) = (    -1          1          0      )
                  (    -1          0          1      )
                  (    -1          0          0      )

 cart.    s(24) = ( -1.0000000  0.0000000  0.0000000 )
                  (  0.0000000  0.0000000  1.0000000 )
                  (  0.0000000 -1.0000000  0.0000000 )


     point group T_d (-43m) 
     there are  5 classes
     the character table:

       E     8C3   3C2   6S4   6s_d 
A_1    1.00  1.00  1.00  1.00  1.00
A_2    1.00  1.00  1.00 -1.00 -1.00
E      2.00 -1.00  2.00  0.00  0.00
T_1    3.00  0.00 -1.00  1.00 -1.00
T_2    3.00  0.00 -1.00 -1.00  1.00

     the symmetry operations in each class and the name of the first element:

     E        1
          identity                                               
     8C3      5    7    8    6   12    9   10   11
          120 deg rotation - cart. axis [-1,-1,-1]               
     3C2      2    3    4
          180 deg rotation - cart. axis [0,0,1]                  
     6S4     15   16   20   19   23   24
          inv.  90 deg rotation - cart. axis [0,0,-1]            
     6s_d    13   14   17   18   21   22
          inv. 180 deg rotation - cart. axis [1,1,0]             

   Cartesian axes

     site n.     atom                  positions (alat units)
         1           In  tau(   1) = (   0.0000000   0.0000000   0.0000000  )
         2           As  tau(   2) = (  -0.2500000   0.2500000   0.2500000  )

   Crystallographic axes

     site n.     atom                  positions (cryst. coord.)
         1           In  tau(   1) = (  0.0000000  0.0000000  0.0000000  )
         2           As  tau(   2) = (  0.2500000  0.2500000  0.2500000  )

     number of k points=   491
                       cart. coord. in units 2pi/alat
        k(    1) = (   0.0000000   0.0000000   0.0000000), wk =   0.0040733
        k(    2) = (  -0.0166667   0.0000000   0.0000000), wk =   0.0040733
        k(    3) = (  -0.0333333   0.0000000   0.0000000), wk =   0.0040733
        k(    4) = (  -0.0500000   0.0000000   0.0000000), wk =   0.0040733
        k(    5) = (  -0.0666667   0.0000000   0.0000000), wk =   0.0040733
        k(    6) = (  -0.0833333   0.0000000   0.0000000), wk =   0.0040733
        k(    7) = (  -0.1000000   0.0000000   0.0000000), wk =   0.0040733
        k(    8) = (  -0.1166667   0.0000000   0.0000000), wk =   0.0040733
        k(    9) = (  -0.1333333   0.0000000   0.0000000), wk =   0.0040733
        k(   10) = (  -0.1500000   0.0000000   0.0000000), wk =   0.0040733
        k(   11) = (  -0.1666667   0.0000000   0.0000000), wk =   0.0040733
        k(   12) = (  -0.1833333   0.0000000   0.0000000), wk =   0.0040733
        k(   13) = (  -0.2000000   0.0000000   0.0000000), wk =   0.0040733
        k(   14) = (  -0.2166667   0.0000000   0.0000000), wk =   0.0040733
        k(   15) = (  -0.2333333   0.0000000   0.0000000), wk =   0.0040733
        k(   16) = (  -0.2500000   0.0000000   0.0000000), wk =   0.0040733
        k(   17) = (  -0.2666667   0.0000000   0.0000000), wk =   0.0040733
        k(   18) = (  -0.2833333   0.0000000   0.0000000), wk =   0.0040733
        k(   19) = (  -0.3000000   0.0000000   0.0000000), wk =   0.0040733
        k(   20) = (  -0.3166667   0.0000000   0.0000000), wk =   0.0040733
        k(   21) = (  -0.3333333   0.0000000   0.0000000), wk =   0.0040733
        k(   22) = (  -0.3500000   0.0000000   0.0000000), wk =   0.0040733
        k(   23) = (  -0.3666667   0.0000000   0.0000000), wk =   0.0040733
        k(   24) = (  -0.3833333   0.0000000   0.0000000), wk =   0.0040733
        k(   25) = (  -0.4000000   0.0000000   0.0000000), wk =   0.0040733
        k(   26) = (  -0.4166667   0.0000000   0.0000000), wk =   0.0040733
        k(   27) = (  -0.4333333   0.0000000   0.0000000), wk =   0.0040733
        k(   28) = (  -0.4500000   0.0000000   0.0000000), wk =   0.0040733
        k(   29) = (  -0.4666667   0.0000000   0.0000000), wk =   0.0040733
        k(   30) = (  -0.4833333   0.0000000   0.0000000), wk =   0.0040733
        k(   31) = (  -0.5000000   0.0000000   0.0000000), wk =   0.0040733
        k(   32) = (  -0.5166667   0.0000000   0.0000000), wk =   0.0040733
        k(   33) = (  -0.5333333   0.0000000   0.0000000), wk =   0.0040733
        k(   34) = (  -0.5500000   0.0000000   0.0000000), wk =   0.0040733
        k(   35) = (  -0.5666667   0.0000000   0.0000000), wk =   0.0040733
        k(   36) = (  -0.5833333   0.0000000   0.0000000), wk =   0.0040733
        k(   37) = (  -0.6000000   0.0000000   0.0000000), wk =   0.0040733
        k(   38) = (  -0.6166667   0.0000000   0.0000000), wk =   0.0040733
        k(   39) = (  -0.6333333   0.0000000   0.0000000), wk =   0.0040733
        k(   40) = (  -0.6500000   0.0000000   0.0000000), wk =   0.0040733
        k(   41) = (  -0.6666667   0.0000000   0.0000000), wk =   0.0040733
        k(   42) = (  -0.6833333   0.0000000   0.0000000), wk =   0.0040733
        k(   43) = (  -0.7000000   0.0000000   0.0000000), wk =   0.0040733
        k(   44) = (  -0.7166667   0.0000000   0.0000000), wk =   0.0040733
        k(   45) = (  -0.7333333   0.0000000   0.0000000), wk =   0.0040733
        k(   46) = (  -0.7500000   0.0000000   0.0000000), wk =   0.0040733
        k(   47) = (  -0.7666667   0.0000000   0.0000000), wk =   0.0040733
        k(   48) = (  -0.7833333   0.0000000   0.0000000), wk =   0.0040733
        k(   49) = (  -0.8000000   0.0000000   0.0000000), wk =   0.0040733
        k(   50) = (  -0.8166667   0.0000000   0.0000000), wk =   0.0040733
        k(   51) = (  -0.8333333   0.0000000   0.0000000), wk =   0.0040733
        k(   52) = (  -0.8500000   0.0000000   0.0000000), wk =   0.0040733
        k(   53) = (  -0.8666667   0.0000000   0.0000000), wk =   0.0040733
        k(   54) = (  -0.8833333   0.0000000   0.0000000), wk =   0.0040733
        k(   55) = (  -0.9000000   0.0000000   0.0000000), wk =   0.0040733
        k(   56) = (  -0.9166667   0.0000000   0.0000000), wk =   0.0040733
        k(   57) = (  -0.9333333   0.0000000   0.0000000), wk =   0.0040733
        k(   58) = (  -0.9500000   0.0000000   0.0000000), wk =   0.0040733
        k(   59) = (  -0.9666667   0.0000000   0.0000000), wk =   0.0040733
        k(   60) = (  -0.9833333   0.0000000   0.0000000), wk =   0.0040733
        k(   61) = (  -1.0000000   0.0000000   0.0000000), wk =   0.0040733
        k(   62) = (  -1.0000000   0.0100000   0.0000000), wk =   0.0040733
        k(   63) = (  -1.0000000   0.0200000   0.0000000), wk =   0.0040733
        k(   64) = (  -1.0000000   0.0300000   0.0000000), wk =   0.0040733
        k(   65) = (  -1.0000000   0.0400000   0.0000000), wk =   0.0040733
        k(   66) = (  -1.0000000   0.0500000   0.0000000), wk =   0.0040733
        k(   67) = (  -1.0000000   0.0600000   0.0000000), wk =   0.0040733
        k(   68) = (  -1.0000000   0.0700000   0.0000000), wk =   0.0040733
        k(   69) = (  -1.0000000   0.0800000   0.0000000), wk =   0.0040733
        k(   70) = (  -1.0000000   0.0900000   0.0000000), wk =   0.0040733
        k(   71) = (  -1.0000000   0.1000000   0.0000000), wk =   0.0040733
        k(   72) = (  -1.0000000   0.1100000   0.0000000), wk =   0.0040733
        k(   73) = (  -1.0000000   0.1200000   0.0000000), wk =   0.0040733
        k(   74) = (  -1.0000000   0.1300000   0.0000000), wk =   0.0040733
        k(   75) = (  -1.0000000   0.1400000   0.0000000), wk =   0.0040733
        k(   76) = (  -1.0000000   0.1500000   0.0000000), wk =   0.0040733
        k(   77) = (  -1.0000000   0.1600000   0.0000000), wk =   0.0040733
        k(   78) = (  -1.0000000   0.1700000   0.0000000), wk =   0.0040733
        k(   79) = (  -1.0000000   0.1800000   0.0000000), wk =   0.0040733
        k(   80) = (  -1.0000000   0.1900000   0.0000000), wk =   0.0040733
        k(   81) = (  -1.0000000   0.2000000   0.0000000), wk =   0.0040733
        k(   82) = (  -1.0000000   0.2100000   0.0000000), wk =   0.0040733
        k(   83) = (  -1.0000000   0.2200000   0.0000000), wk =   0.0040733
        k(   84) = (  -1.0000000   0.2300000   0.0000000), wk =   0.0040733
        k(   85) = (  -1.0000000   0.2400000   0.0000000), wk =   0.0040733
        k(   86) = (  -1.0000000   0.2500000   0.0000000), wk =   0.0040733
        k(   87) = (  -1.0000000   0.2600000   0.0000000), wk =   0.0040733
        k(   88) = (  -1.0000000   0.2700000   0.0000000), wk =   0.0040733
        k(   89) = (  -1.0000000   0.2800000   0.0000000), wk =   0.0040733
        k(   90) = (  -1.0000000   0.2900000   0.0000000), wk =   0.0040733
        k(   91) = (  -1.0000000   0.3000000   0.0000000), wk =   0.0040733
        k(   92) = (  -1.0000000   0.3100000   0.0000000), wk =   0.0040733
        k(   93) = (  -1.0000000   0.3200000   0.0000000), wk =   0.0040733
        k(   94) = (  -1.0000000   0.3300000   0.0000000), wk =   0.0040733
        k(   95) = (  -1.0000000   0.3400000   0.0000000), wk =   0.0040733
        k(   96) = (  -1.0000000   0.3500000   0.0000000), wk =   0.0040733
        k(   97) = (  -1.0000000   0.3600000   0.0000000), wk =   0.0040733
        k(   98) = (  -1.0000000   0.3700000   0.0000000), wk =   0.0040733
        k(   99) = (  -1.0000000   0.3800000   0.0000000), wk =   0.0040733
        k(  100) = (  -1.0000000   0.3900000   0.0000000), wk =   0.0040733
        k(  101) = (  -1.0000000   0.4000000   0.0000000), wk =   0.0040733
        k(  102) = (  -1.0000000   0.4100000   0.0000000), wk =   0.0040733
        k(  103) = (  -1.0000000   0.4200000   0.0000000), wk =   0.0040733
        k(  104) = (  -1.0000000   0.4300000   0.0000000), wk =   0.0040733
        k(  105) = (  -1.0000000   0.4400000   0.0000000), wk =   0.0040733
        k(  106) = (  -1.0000000   0.4500000   0.0000000), wk =   0.0040733
        k(  107) = (  -1.0000000   0.4600000   0.0000000), wk =   0.0040733
        k(  108) = (  -1.0000000   0.4700000   0.0000000), wk =   0.0040733
        k(  109) = (  -1.0000000   0.4800000   0.0000000), wk =   0.0040733
        k(  110) = (  -1.0000000   0.4900000   0.0000000), wk =   0.0040733
        k(  111) = (  -1.0000000   0.5000000   0.0000000), wk =   0.0040733
        k(  112) = (  -0.9950000   0.5050000   0.0000000), wk =   0.0040733
        k(  113) = (  -0.9900000   0.5100000   0.0000000), wk =   0.0040733
        k(  114) = (  -0.9850000   0.5150000   0.0000000), wk =   0.0040733
        k(  115) = (  -0.9800000   0.5200000   0.0000000), wk =   0.0040733
        k(  116) = (  -0.9750000   0.5250000   0.0000000), wk =   0.0040733
        k(  117) = (  -0.9700000   0.5300000   0.0000000), wk =   0.0040733
        k(  118) = (  -0.9650000   0.5350000   0.0000000), wk =   0.0040733
        k(  119) = (  -0.9600000   0.5400000   0.0000000), wk =   0.0040733
        k(  120) = (  -0.9550000   0.5450000   0.0000000), wk =   0.0040733
        k(  121) = (  -0.9500000   0.5500000   0.0000000), wk =   0.0040733
        k(  122) = (  -0.9450000   0.5550000   0.0000000), wk =   0.0040733
        k(  123) = (  -0.9400000   0.5600000   0.0000000), wk =   0.0040733
        k(  124) = (  -0.9350000   0.5650000   0.0000000), wk =   0.0040733
        k(  125) = (  -0.9300000   0.5700000   0.0000000), wk =   0.0040733
        k(  126) = (  -0.9250000   0.5750000   0.0000000), wk =   0.0040733
        k(  127) = (  -0.9200000   0.5800000   0.0000000), wk =   0.0040733
        k(  128) = (  -0.9150000   0.5850000   0.0000000), wk =   0.0040733
        k(  129) = (  -0.9100000   0.5900000   0.0000000), wk =   0.0040733
        k(  130) = (  -0.9050000   0.5950000   0.0000000), wk =   0.0040733
        k(  131) = (  -0.9000000   0.6000000   0.0000000), wk =   0.0040733
        k(  132) = (  -0.8950000   0.6050000   0.0000000), wk =   0.0040733
        k(  133) = (  -0.8900000   0.6100000   0.0000000), wk =   0.0040733
        k(  134) = (  -0.8850000   0.6150000   0.0000000), wk =   0.0040733
        k(  135) = (  -0.8800000   0.6200000   0.0000000), wk =   0.0040733
        k(  136) = (  -0.8750000   0.6250000   0.0000000), wk =   0.0040733
        k(  137) = (  -0.8700000   0.6300000   0.0000000), wk =   0.0040733
        k(  138) = (  -0.8650000   0.6350000   0.0000000), wk =   0.0040733
        k(  139) = (  -0.8600000   0.6400000   0.0000000), wk =   0.0040733
        k(  140) = (  -0.8550000   0.6450000   0.0000000), wk =   0.0040733
        k(  141) = (  -0.8500000   0.6500000   0.0000000), wk =   0.0040733
        k(  142) = (  -0.8450000   0.6550000   0.0000000), wk =   0.0040733
        k(  143) = (  -0.8400000   0.6600000   0.0000000), wk =   0.0040733
        k(  144) = (  -0.8350000   0.6650000   0.0000000), wk =   0.0040733
        k(  145) = (  -0.8300000   0.6700000   0.0000000), wk =   0.0040733
        k(  146) = (  -0.8250000   0.6750000   0.0000000), wk =   0.0040733
        k(  147) = (  -0.8200000   0.6800000   0.0000000), wk =   0.0040733
        k(  148) = (  -0.8150000   0.6850000   0.0000000), wk =   0.0040733
        k(  149) = (  -0.8100000   0.6900000   0.0000000), wk =   0.0040733
        k(  150) = (  -0.8050000   0.6950000   0.0000000), wk =   0.0040733
        k(  151) = (  -0.8000000   0.7000000   0.0000000), wk =   0.0040733
        k(  152) = (  -0.7950000   0.7050000   0.0000000), wk =   0.0040733
        k(  153) = (  -0.7900000   0.7100000   0.0000000), wk =   0.0040733
        k(  154) = (  -0.7850000   0.7150000   0.0000000), wk =   0.0040733
        k(  155) = (  -0.7800000   0.7200000   0.0000000), wk =   0.0040733
        k(  156) = (  -0.7750000   0.7250000   0.0000000), wk =   0.0040733
        k(  157) = (  -0.7700000   0.7300000   0.0000000), wk =   0.0040733
        k(  158) = (  -0.7650000   0.7350000   0.0000000), wk =   0.0040733
        k(  159) = (  -0.7600000   0.7400000   0.0000000), wk =   0.0040733
        k(  160) = (  -0.7550000   0.7450000   0.0000000), wk =   0.0040733
        k(  161) = (  -0.7500000   0.7500000   0.0000000), wk =   0.0040733
        k(  162) = (  -0.7350000   0.7350000   0.0000000), wk =   0.0040733
        k(  163) = (  -0.7200000   0.7200000   0.0000000), wk =   0.0040733
        k(  164) = (  -0.7050000   0.7050000   0.0000000), wk =   0.0040733
        k(  165) = (  -0.6900000   0.6900000   0.0000000), wk =   0.0040733
        k(  166) = (  -0.6750000   0.6750000   0.0000000), wk =   0.0040733
        k(  167) = (  -0.6600000   0.6600000   0.0000000), wk =   0.0040733
        k(  168) = (  -0.6450000   0.6450000   0.0000000), wk =   0.0040733
        k(  169) = (  -0.6300000   0.6300000   0.0000000), wk =   0.0040733
        k(  170) = (  -0.6150000   0.6150000   0.0000000), wk =   0.0040733
        k(  171) = (  -0.6000000   0.6000000   0.0000000), wk =   0.0040733
        k(  172) = (  -0.5850000   0.5850000   0.0000000), wk =   0.0040733
        k(  173) = (  -0.5700000   0.5700000   0.0000000), wk =   0.0040733
        k(  174) = (  -0.5550000   0.5550000   0.0000000), wk =   0.0040733
        k(  175) = (  -0.5400000   0.5400000   0.0000000), wk =   0.0040733
        k(  176) = (  -0.5250000   0.5250000   0.0000000), wk =   0.0040733
        k(  177) = (  -0.5100000   0.5100000   0.0000000), wk =   0.0040733
        k(  178) = (  -0.4950000   0.4950000   0.0000000), wk =   0.0040733
        k(  179) = (  -0.4800000   0.4800000   0.0000000), wk =   0.0040733
        k(  180) = (  -0.4650000   0.4650000   0.0000000), wk =   0.0040733
        k(  181) = (  -0.4500000   0.4500000   0.0000000), wk =   0.0040733
        k(  182) = (  -0.4350000   0.4350000   0.0000000), wk =   0.0040733
        k(  183) = (  -0.4200000   0.4200000   0.0000000), wk =   0.0040733
        k(  184) = (  -0.4050000   0.4050000   0.0000000), wk =   0.0040733
        k(  185) = (  -0.3900000   0.3900000   0.0000000), wk =   0.0040733
        k(  186) = (  -0.3750000   0.3750000   0.0000000), wk =   0.0040733
        k(  187) = (  -0.3600000   0.3600000   0.0000000), wk =   0.0040733
        k(  188) = (  -0.3450000   0.3450000   0.0000000), wk =   0.0040733
        k(  189) = (  -0.3300000   0.3300000   0.0000000), wk =   0.0040733
        k(  190) = (  -0.3150000   0.3150000   0.0000000), wk =   0.0040733
        k(  191) = (  -0.3000000   0.3000000   0.0000000), wk =   0.0040733
        k(  192) = (  -0.2850000   0.2850000   0.0000000), wk =   0.0040733
        k(  193) = (  -0.2700000   0.2700000   0.0000000), wk =   0.0040733
        k(  194) = (  -0.2550000   0.2550000   0.0000000), wk =   0.0040733
        k(  195) = (  -0.2400000   0.2400000   0.0000000), wk =   0.0040733
        k(  196) = (  -0.2250000   0.2250000   0.0000000), wk =   0.0040733
        k(  197) = (  -0.2100000   0.2100000   0.0000000), wk =   0.0040733
        k(  198) = (  -0.1950000   0.1950000   0.0000000), wk =   0.0040733
        k(  199) = (  -0.1800000   0.1800000   0.0000000), wk =   0.0040733
        k(  200) = (  -0.1650000   0.1650000   0.0000000), wk =   0.0040733
        k(  201) = (  -0.1500000   0.1500000   0.0000000), wk =   0.0040733
        k(  202) = (  -0.1350000   0.1350000   0.0000000), wk =   0.0040733
        k(  203) = (  -0.1200000   0.1200000   0.0000000), wk =   0.0040733
        k(  204) = (  -0.1050000   0.1050000   0.0000000), wk =   0.0040733
        k(  205) = (  -0.0900000   0.0900000   0.0000000), wk =   0.0040733
        k(  206) = (  -0.0750000   0.0750000   0.0000000), wk =   0.0040733
        k(  207) = (  -0.0600000   0.0600000   0.0000000), wk =   0.0040733
        k(  208) = (  -0.0450000   0.0450000   0.0000000), wk =   0.0040733
        k(  209) = (  -0.0300000   0.0300000   0.0000000), wk =   0.0040733
        k(  210) = (  -0.0150000   0.0150000   0.0000000), wk =   0.0040733
        k(  211) = (   0.0000000   0.0000000   0.0000000), wk =   0.0040733
        k(  212) = (  -0.0083333   0.0083333   0.0083333), wk =   0.0040733
        k(  213) = (  -0.0166667   0.0166667   0.0166667), wk =   0.0040733
        k(  214) = (  -0.0250000   0.0250000   0.0250000), wk =   0.0040733
        k(  215) = (  -0.0333333   0.0333333   0.0333333), wk =   0.0040733
        k(  216) = (  -0.0416667   0.0416667   0.0416667), wk =   0.0040733
        k(  217) = (  -0.0500000   0.0500000   0.0500000), wk =   0.0040733
        k(  218) = (  -0.0583333   0.0583333   0.0583333), wk =   0.0040733
        k(  219) = (  -0.0666667   0.0666667   0.0666667), wk =   0.0040733
        k(  220) = (  -0.0750000   0.0750000   0.0750000), wk =   0.0040733
        k(  221) = (  -0.0833333   0.0833333   0.0833333), wk =   0.0040733
        k(  222) = (  -0.0916667   0.0916667   0.0916667), wk =   0.0040733
        k(  223) = (  -0.1000000   0.1000000   0.1000000), wk =   0.0040733
        k(  224) = (  -0.1083333   0.1083333   0.1083333), wk =   0.0040733
        k(  225) = (  -0.1166667   0.1166667   0.1166667), wk =   0.0040733
        k(  226) = (  -0.1250000   0.1250000   0.1250000), wk =   0.0040733
        k(  227) = (  -0.1333333   0.1333333   0.1333333), wk =   0.0040733
        k(  228) = (  -0.1416667   0.1416667   0.1416667), wk =   0.0040733
        k(  229) = (  -0.1500000   0.1500000   0.1500000), wk =   0.0040733
        k(  230) = (  -0.1583333   0.1583333   0.1583333), wk =   0.0040733
        k(  231) = (  -0.1666667   0.1666667   0.1666667), wk =   0.0040733
        k(  232) = (  -0.1750000   0.1750000   0.1750000), wk =   0.0040733
        k(  233) = (  -0.1833333   0.1833333   0.1833333), wk =   0.0040733
        k(  234) = (  -0.1916667   0.1916667   0.1916667), wk =   0.0040733
        k(  235) = (  -0.2000000   0.2000000   0.2000000), wk =   0.0040733
        k(  236) = (  -0.2083333   0.2083333   0.2083333), wk =   0.0040733
        k(  237) = (  -0.2166667   0.2166667   0.2166667), wk =   0.0040733
        k(  238) = (  -0.2250000   0.2250000   0.2250000), wk =   0.0040733
        k(  239) = (  -0.2333333   0.2333333   0.2333333), wk =   0.0040733
        k(  240) = (  -0.2416667   0.2416667   0.2416667), wk =   0.0040733
        k(  241) = (  -0.2500000   0.2500000   0.2500000), wk =   0.0040733
        k(  242) = (  -0.2583333   0.2583333   0.2583333), wk =   0.0040733
        k(  243) = (  -0.2666667   0.2666667   0.2666667), wk =   0.0040733
        k(  244) = (  -0.2750000   0.2750000   0.2750000), wk =   0.0040733
        k(  245) = (  -0.2833333   0.2833333   0.2833333), wk =   0.0040733
        k(  246) = (  -0.2916667   0.2916667   0.2916667), wk =   0.0040733
        k(  247) = (  -0.3000000   0.3000000   0.3000000), wk =   0.0040733
        k(  248) = (  -0.3083333   0.3083333   0.3083333), wk =   0.0040733
        k(  249) = (  -0.3166667   0.3166667   0.3166667), wk =   0.0040733
        k(  250) = (  -0.3250000   0.3250000   0.3250000), wk =   0.0040733
        k(  251) = (  -0.3333333   0.3333333   0.3333333), wk =   0.0040733
        k(  252) = (  -0.3416667   0.3416667   0.3416667), wk =   0.0040733
        k(  253) = (  -0.3500000   0.3500000   0.3500000), wk =   0.0040733
        k(  254) = (  -0.3583333   0.3583333   0.3583333), wk =   0.0040733
        k(  255) = (  -0.3666667   0.3666667   0.3666667), wk =   0.0040733
        k(  256) = (  -0.3750000   0.3750000   0.3750000), wk =   0.0040733
        k(  257) = (  -0.3833333   0.3833333   0.3833333), wk =   0.0040733
        k(  258) = (  -0.3916667   0.3916667   0.3916667), wk =   0.0040733
        k(  259) = (  -0.4000000   0.4000000   0.4000000), wk =   0.0040733
        k(  260) = (  -0.4083333   0.4083333   0.4083333), wk =   0.0040733
        k(  261) = (  -0.4166667   0.4166667   0.4166667), wk =   0.0040733
        k(  262) = (  -0.4250000   0.4250000   0.4250000), wk =   0.0040733
        k(  263) = (  -0.4333333   0.4333333   0.4333333), wk =   0.0040733
        k(  264) = (  -0.4416667   0.4416667   0.4416667), wk =   0.0040733
        k(  265) = (  -0.4500000   0.4500000   0.4500000), wk =   0.0040733
        k(  266) = (  -0.4583333   0.4583333   0.4583333), wk =   0.0040733
        k(  267) = (  -0.4666667   0.4666667   0.4666667), wk =   0.0040733
        k(  268) = (  -0.4750000   0.4750000   0.4750000), wk =   0.0040733
        k(  269) = (  -0.4833333   0.4833333   0.4833333), wk =   0.0040733
        k(  270) = (  -0.4916667   0.4916667   0.4916667), wk =   0.0040733
        k(  271) = (  -0.5000000   0.5000000   0.5000000), wk =   0.0040733
        k(  272) = (  -0.5083333   0.4958333   0.4958333), wk =   0.0040733
        k(  273) = (  -0.5166667   0.4916667   0.4916667), wk =   0.0040733
        k(  274) = (  -0.5250000   0.4875000   0.4875000), wk =   0.0040733
        k(  275) = (  -0.5333333   0.4833333   0.4833333), wk =   0.0040733
        k(  276) = (  -0.5416667   0.4791667   0.4791667), wk =   0.0040733
        k(  277) = (  -0.5500000   0.4750000   0.4750000), wk =   0.0040733
        k(  278) = (  -0.5583333   0.4708333   0.4708333), wk =   0.0040733
        k(  279) = (  -0.5666667   0.4666667   0.4666667), wk =   0.0040733
        k(  280) = (  -0.5750000   0.4625000   0.4625000), wk =   0.0040733
        k(  281) = (  -0.5833333   0.4583333   0.4583333), wk =   0.0040733
        k(  282) = (  -0.5916667   0.4541667   0.4541667), wk =   0.0040733
        k(  283) = (  -0.6000000   0.4500000   0.4500000), wk =   0.0040733
        k(  284) = (  -0.6083333   0.4458333   0.4458333), wk =   0.0040733
        k(  285) = (  -0.6166667   0.4416667   0.4416667), wk =   0.0040733
        k(  286) = (  -0.6250000   0.4375000   0.4375000), wk =   0.0040733
        k(  287) = (  -0.6333333   0.4333333   0.4333333), wk =   0.0040733
        k(  288) = (  -0.6416667   0.4291667   0.4291667), wk =   0.0040733
        k(  289) = (  -0.6500000   0.4250000   0.4250000), wk =   0.0040733
        k(  290) = (  -0.6583333   0.4208333   0.4208333), wk =   0.0040733
        k(  291) = (  -0.6666667   0.4166667   0.4166667), wk =   0.0040733
        k(  292) = (  -0.6750000   0.4125000   0.4125000), wk =   0.0040733
        k(  293) = (  -0.6833333   0.4083333   0.4083333), wk =   0.0040733
        k(  294) = (  -0.6916667   0.4041667   0.4041667), wk =   0.0040733
        k(  295) = (  -0.7000000   0.4000000   0.4000000), wk =   0.0040733
        k(  296) = (  -0.7083333   0.3958333   0.3958333), wk =   0.0040733
        k(  297) = (  -0.7166667   0.3916667   0.3916667), wk =   0.0040733
        k(  298) = (  -0.7250000   0.3875000   0.3875000), wk =   0.0040733
        k(  299) = (  -0.7333333   0.3833333   0.3833333), wk =   0.0040733
        k(  300) = (  -0.7416667   0.3791667   0.3791667), wk =   0.0040733
        k(  301) = (  -0.7500000   0.3750000   0.3750000), wk =   0.0040733
        k(  302) = (  -0.7583333   0.3708333   0.3708333), wk =   0.0040733
        k(  303) = (  -0.7666667   0.3666667   0.3666667), wk =   0.0040733
        k(  304) = (  -0.7750000   0.3625000   0.3625000), wk =   0.0040733
        k(  305) = (  -0.7833333   0.3583333   0.3583333), wk =   0.0040733
        k(  306) = (  -0.7916667   0.3541667   0.3541667), wk =   0.0040733
        k(  307) = (  -0.8000000   0.3500000   0.3500000), wk =   0.0040733
        k(  308) = (  -0.8083333   0.3458333   0.3458333), wk =   0.0040733
        k(  309) = (  -0.8166667   0.3416667   0.3416667), wk =   0.0040733
        k(  310) = (  -0.8250000   0.3375000   0.3375000), wk =   0.0040733
        k(  311) = (  -0.8333333   0.3333333   0.3333333), wk =   0.0040733
        k(  312) = (  -0.8416667   0.3291667   0.3291667), wk =   0.0040733
        k(  313) = (  -0.8500000   0.3250000   0.3250000), wk =   0.0040733
        k(  314) = (  -0.8583333   0.3208333   0.3208333), wk =   0.0040733
        k(  315) = (  -0.8666667   0.3166667   0.3166667), wk =   0.0040733
        k(  316) = (  -0.8750000   0.3125000   0.3125000), wk =   0.0040733
        k(  317) = (  -0.8833333   0.3083333   0.3083333), wk =   0.0040733
        k(  318) = (  -0.8916667   0.3041667   0.3041667), wk =   0.0040733
        k(  319) = (  -0.9000000   0.3000000   0.3000000), wk =   0.0040733
        k(  320) = (  -0.9083333   0.2958333   0.2958333), wk =   0.0040733
        k(  321) = (  -0.9166667   0.2916667   0.2916667), wk =   0.0040733
        k(  322) = (  -0.9250000   0.2875000   0.2875000), wk =   0.0040733
        k(  323) = (  -0.9333333   0.2833333   0.2833333), wk =   0.0040733
        k(  324) = (  -0.9416667   0.2791667   0.2791667), wk =   0.0040733
        k(  325) = (  -0.9500000   0.2750000   0.2750000), wk =   0.0040733
        k(  326) = (  -0.9583333   0.2708333   0.2708333), wk =   0.0040733
        k(  327) = (  -0.9666667   0.2666667   0.2666667), wk =   0.0040733
        k(  328) = (  -0.9750000   0.2625000   0.2625000), wk =   0.0040733
        k(  329) = (  -0.9833333   0.2583333   0.2583333), wk =   0.0040733
        k(  330) = (  -0.9916667   0.2541667   0.2541667), wk =   0.0040733
        k(  331) = (  -1.0000000   0.2500000   0.2500000), wk =   0.0040733
        k(  332) = (  -1.0000000   0.2550000   0.2450000), wk =   0.0040733
        k(  333) = (  -1.0000000   0.2600000   0.2400000), wk =   0.0040733
        k(  334) = (  -1.0000000   0.2650000   0.2350000), wk =   0.0040733
        k(  335) = (  -1.0000000   0.2700000   0.2300000), wk =   0.0040733
        k(  336) = (  -1.0000000   0.2750000   0.2250000), wk =   0.0040733
        k(  337) = (  -1.0000000   0.2800000   0.2200000), wk =   0.0040733
        k(  338) = (  -1.0000000   0.2850000   0.2150000), wk =   0.0040733
        k(  339) = (  -1.0000000   0.2900000   0.2100000), wk =   0.0040733
        k(  340) = (  -1.0000000   0.2950000   0.2050000), wk =   0.0040733
        k(  341) = (  -1.0000000   0.3000000   0.2000000), wk =   0.0040733
        k(  342) = (  -1.0000000   0.3050000   0.1950000), wk =   0.0040733
        k(  343) = (  -1.0000000   0.3100000   0.1900000), wk =   0.0040733
        k(  344) = (  -1.0000000   0.3150000   0.1850000), wk =   0.0040733
        k(  345) = (  -1.0000000   0.3200000   0.1800000), wk =   0.0040733
        k(  346) = (  -1.0000000   0.3250000   0.1750000), wk =   0.0040733
        k(  347) = (  -1.0000000   0.3300000   0.1700000), wk =   0.0040733
        k(  348) = (  -1.0000000   0.3350000   0.1650000), wk =   0.0040733
        k(  349) = (  -1.0000000   0.3400000   0.1600000), wk =   0.0040733
        k(  350) = (  -1.0000000   0.3450000   0.1550000), wk =   0.0040733
        k(  351) = (  -1.0000000   0.3500000   0.1500000), wk =   0.0040733
        k(  352) = (  -1.0000000   0.3550000   0.1450000), wk =   0.0040733
        k(  353) = (  -1.0000000   0.3600000   0.1400000), wk =   0.0040733
        k(  354) = (  -1.0000000   0.3650000   0.1350000), wk =   0.0040733
        k(  355) = (  -1.0000000   0.3700000   0.1300000), wk =   0.0040733
        k(  356) = (  -1.0000000   0.3750000   0.1250000), wk =   0.0040733
        k(  357) = (  -1.0000000   0.3800000   0.1200000), wk =   0.0040733
        k(  358) = (  -1.0000000   0.3850000   0.1150000), wk =   0.0040733
        k(  359) = (  -1.0000000   0.3900000   0.1100000), wk =   0.0040733
        k(  360) = (  -1.0000000   0.3950000   0.1050000), wk =   0.0040733
        k(  361) = (  -1.0000000   0.4000000   0.1000000), wk =   0.0040733
        k(  362) = (  -1.0000000   0.4050000   0.0950000), wk =   0.0040733
        k(  363) = (  -1.0000000   0.4100000   0.0900000), wk =   0.0040733
        k(  364) = (  -1.0000000   0.4150000   0.0850000), wk =   0.0040733
        k(  365) = (  -1.0000000   0.4200000   0.0800000), wk =   0.0040733
        k(  366) = (  -1.0000000   0.4250000   0.0750000), wk =   0.0040733
        k(  367) = (  -1.0000000   0.4300000   0.0700000), wk =   0.0040733
        k(  368) = (  -1.0000000   0.4350000   0.0650000), wk =   0.0040733
        k(  369) = (  -1.0000000   0.4400000   0.0600000), wk =   0.0040733
        k(  370) = (  -1.0000000   0.4450000   0.0550000), wk =   0.0040733
        k(  371) = (  -1.0000000   0.4500000   0.0500000), wk =   0.0040733
        k(  372) = (  -1.0000000   0.4550000   0.0450000), wk =   0.0040733
        k(  373) = (  -1.0000000   0.4600000   0.0400000), wk =   0.0040733
        k(  374) = (  -1.0000000   0.4650000   0.0350000), wk =   0.0040733
        k(  375) = (  -1.0000000   0.4700000   0.0300000), wk =   0.0040733
        k(  376) = (  -1.0000000   0.4750000   0.0250000), wk =   0.0040733
        k(  377) = (  -1.0000000   0.4800000   0.0200000), wk =   0.0040733
        k(  378) = (  -1.0000000   0.4850000   0.0150000), wk =   0.0040733
        k(  379) = (  -1.0000000   0.4900000   0.0100000), wk =   0.0040733
        k(  380) = (  -1.0000000   0.4950000   0.0050000), wk =   0.0040733
        k(  381) = (  -1.0000000   0.5000000   0.0000000), wk =   0.0040733
        k(  382) = (  -0.9900000   0.5000000   0.0100000), wk =   0.0040733
        k(  383) = (  -0.9800000   0.5000000   0.0200000), wk =   0.0040733
        k(  384) = (  -0.9700000   0.5000000   0.0300000), wk =   0.0040733
        k(  385) = (  -0.9600000   0.5000000   0.0400000), wk =   0.0040733
        k(  386) = (  -0.9500000   0.5000000   0.0500000), wk =   0.0040733
        k(  387) = (  -0.9400000   0.5000000   0.0600000), wk =   0.0040733
        k(  388) = (  -0.9300000   0.5000000   0.0700000), wk =   0.0040733
        k(  389) = (  -0.9200000   0.5000000   0.0800000), wk =   0.0040733
        k(  390) = (  -0.9100000   0.5000000   0.0900000), wk =   0.0040733
        k(  391) = (  -0.9000000   0.5000000   0.1000000), wk =   0.0040733
        k(  392) = (  -0.8900000   0.5000000   0.1100000), wk =   0.0040733
        k(  393) = (  -0.8800000   0.5000000   0.1200000), wk =   0.0040733
        k(  394) = (  -0.8700000   0.5000000   0.1300000), wk =   0.0040733
        k(  395) = (  -0.8600000   0.5000000   0.1400000), wk =   0.0040733
        k(  396) = (  -0.8500000   0.5000000   0.1500000), wk =   0.0040733
        k(  397) = (  -0.8400000   0.5000000   0.1600000), wk =   0.0040733
        k(  398) = (  -0.8300000   0.5000000   0.1700000), wk =   0.0040733
        k(  399) = (  -0.8200000   0.5000000   0.1800000), wk =   0.0040733
        k(  400) = (  -0.8100000   0.5000000   0.1900000), wk =   0.0040733
        k(  401) = (  -0.8000000   0.5000000   0.2000000), wk =   0.0040733
        k(  402) = (  -0.7900000   0.5000000   0.2100000), wk =   0.0040733
        k(  403) = (  -0.7800000   0.5000000   0.2200000), wk =   0.0040733
        k(  404) = (  -0.7700000   0.5000000   0.2300000), wk =   0.0040733
        k(  405) = (  -0.7600000   0.5000000   0.2400000), wk =   0.0040733
        k(  406) = (  -0.7500000   0.5000000   0.2500000), wk =   0.0040733
        k(  407) = (  -0.7400000   0.5000000   0.2600000), wk =   0.0040733
        k(  408) = (  -0.7300000   0.5000000   0.2700000), wk =   0.0040733
        k(  409) = (  -0.7200000   0.5000000   0.2800000), wk =   0.0040733
        k(  410) = (  -0.7100000   0.5000000   0.2900000), wk =   0.0040733
        k(  411) = (  -0.7000000   0.5000000   0.3000000), wk =   0.0040733
        k(  412) = (  -0.6900000   0.5000000   0.3100000), wk =   0.0040733
        k(  413) = (  -0.6800000   0.5000000   0.3200000), wk =   0.0040733
        k(  414) = (  -0.6700000   0.5000000   0.3300000), wk =   0.0040733
        k(  415) = (  -0.6600000   0.5000000   0.3400000), wk =   0.0040733
        k(  416) = (  -0.6500000   0.5000000   0.3500000), wk =   0.0040733
        k(  417) = (  -0.6400000   0.5000000   0.3600000), wk =   0.0040733
        k(  418) = (  -0.6300000   0.5000000   0.3700000), wk =   0.0040733
        k(  419) = (  -0.6200000   0.5000000   0.3800000), wk =   0.0040733
        k(  420) = (  -0.6100000   0.5000000   0.3900000), wk =   0.0040733
        k(  421) = (  -0.6000000   0.5000000   0.4000000), wk =   0.0040733
        k(  422) = (  -0.5900000   0.5000000   0.4100000), wk =   0.0040733
        k(  423) = (  -0.5800000   0.5000000   0.4200000), wk =   0.0040733
        k(  424) = (  -0.5700000   0.5000000   0.4300000), wk =   0.0040733
        k(  425) = (  -0.5600000   0.5000000   0.4400000), wk =   0.0040733
        k(  426) = (  -0.5500000   0.5000000   0.4500000), wk =   0.0040733
        k(  427) = (  -0.5400000   0.5000000   0.4600000), wk =   0.0040733
        k(  428) = (  -0.5300000   0.5000000   0.4700000), wk =   0.0040733
        k(  429) = (  -0.5200000   0.5000000   0.4800000), wk =   0.0040733
        k(  430) = (  -0.5100000   0.5000000   0.4900000), wk =   0.0040733
        k(  431) = (  -0.5000000   0.5000000   0.5000000), wk =   0.0040733
        k(  432) = (  -0.5041667   0.5041667   0.4916667), wk =   0.0040733
        k(  433) = (  -0.5083333   0.5083333   0.4833333), wk =   0.0040733
        k(  434) = (  -0.5125000   0.5125000   0.4750000), wk =   0.0040733
        k(  435) = (  -0.5166667   0.5166667   0.4666667), wk =   0.0040733
        k(  436) = (  -0.5208333   0.5208333   0.4583333), wk =   0.0040733
        k(  437) = (  -0.5250000   0.5250000   0.4500000), wk =   0.0040733
        k(  438) = (  -0.5291667   0.5291667   0.4416667), wk =   0.0040733
        k(  439) = (  -0.5333333   0.5333333   0.4333333), wk =   0.0040733
        k(  440) = (  -0.5375000   0.5375000   0.4250000), wk =   0.0040733
        k(  441) = (  -0.5416667   0.5416667   0.4166667), wk =   0.0040733
        k(  442) = (  -0.5458333   0.5458333   0.4083333), wk =   0.0040733
        k(  443) = (  -0.5500000   0.5500000   0.4000000), wk =   0.0040733
        k(  444) = (  -0.5541667   0.5541667   0.3916667), wk =   0.0040733
        k(  445) = (  -0.5583333   0.5583333   0.3833333), wk =   0.0040733
        k(  446) = (  -0.5625000   0.5625000   0.3750000), wk =   0.0040733
        k(  447) = (  -0.5666667   0.5666667   0.3666667), wk =   0.0040733
        k(  448) = (  -0.5708333   0.5708333   0.3583333), wk =   0.0040733
        k(  449) = (  -0.5750000   0.5750000   0.3500000), wk =   0.0040733
        k(  450) = (  -0.5791667   0.5791667   0.3416667), wk =   0.0040733
        k(  451) = (  -0.5833333   0.5833333   0.3333333), wk =   0.0040733
        k(  452) = (  -0.5875000   0.5875000   0.3250000), wk =   0.0040733
        k(  453) = (  -0.5916667   0.5916667   0.3166667), wk =   0.0040733
        k(  454) = (  -0.5958333   0.5958333   0.3083333), wk =   0.0040733
        k(  455) = (  -0.6000000   0.6000000   0.3000000), wk =   0.0040733
        k(  456) = (  -0.6041667   0.6041667   0.2916667), wk =   0.0040733
        k(  457) = (  -0.6083333   0.6083333   0.2833333), wk =   0.0040733
        k(  458) = (  -0.6125000   0.6125000   0.2750000), wk =   0.0040733
        k(  459) = (  -0.6166667   0.6166667   0.2666667), wk =   0.0040733
        k(  460) = (  -0.6208333   0.6208333   0.2583333), wk =   0.0040733
        k(  461) = (  -0.6250000   0.6250000   0.2500000), wk =   0.0040733
        k(  462) = (  -0.6291667   0.6291667   0.2416667), wk =   0.0040733
        k(  463) = (  -0.6333333   0.6333333   0.2333333), wk =   0.0040733
        k(  464) = (  -0.6375000   0.6375000   0.2250000), wk =   0.0040733
        k(  465) = (  -0.6416667   0.6416667   0.2166667), wk =   0.0040733
        k(  466) = (  -0.6458333   0.6458333   0.2083333), wk =   0.0040733
        k(  467) = (  -0.6500000   0.6500000   0.2000000), wk =   0.0040733
        k(  468) = (  -0.6541667   0.6541667   0.1916667), wk =   0.0040733
        k(  469) = (  -0.6583333   0.6583333   0.1833333), wk =   0.0040733
        k(  470) = (  -0.6625000   0.6625000   0.1750000), wk =   0.0040733
        k(  471) = (  -0.6666667   0.6666667   0.1666667), wk =   0.0040733
        k(  472) = (  -0.6708333   0.6708333   0.1583333), wk =   0.0040733
        k(  473) = (  -0.6750000   0.6750000   0.1500000), wk =   0.0040733
        k(  474) = (  -0.6791667   0.6791667   0.1416667), wk =   0.0040733
        k(  475) = (  -0.6833333   0.6833333   0.1333333), wk =   0.0040733
        k(  476) = (  -0.6875000   0.6875000   0.1250000), wk =   0.0040733
        k(  477) = (  -0.6916667   0.6916667   0.1166667), wk =   0.0040733
        k(  478) = (  -0.6958333   0.6958333   0.1083333), wk =   0.0040733
        k(  479) = (  -0.7000000   0.7000000   0.1000000), wk =   0.0040733
        k(  480) = (  -0.7041667   0.7041667   0.0916667), wk =   0.0040733
        k(  481) = (  -0.7083333   0.7083333   0.0833333), wk =   0.0040733
        k(  482) = (  -0.7125000   0.7125000   0.0750000), wk =   0.0040733
        k(  483) = (  -0.7166667   0.7166667   0.0666667), wk =   0.0040733
        k(  484) = (  -0.7208333   0.7208333   0.0583333), wk =   0.0040733
        k(  485) = (  -0.7250000   0.7250000   0.0500000), wk =   0.0040733
        k(  486) = (  -0.7291667   0.7291667   0.0416667), wk =   0.0040733
        k(  487) = (  -0.7333333   0.7333333   0.0333333), wk =   0.0040733
        k(  488) = (  -0.7375000   0.7375000   0.0250000), wk =   0.0040733
        k(  489) = (  -0.7416667   0.7416667   0.0166667), wk =   0.0040733
        k(  490) = (  -0.7458333   0.7458333   0.0083333), wk =   0.0040733
        k(  491) = (  -0.7500000   0.7500000   0.0000000), wk =   0.0040733

                       cryst. coord.
        k(    1) = (   0.0000000   0.0000000   0.0000000), wk =   0.0040733
        k(    2) = (   0.0083333   0.0000000   0.0083333), wk =   0.0040733
        k(    3) = (   0.0166667   0.0000000   0.0166667), wk =   0.0040733
        k(    4) = (   0.0250000   0.0000000   0.0250000), wk =   0.0040733
        k(    5) = (   0.0333333   0.0000000   0.0333333), wk =   0.0040733
        k(    6) = (   0.0416667   0.0000000   0.0416667), wk =   0.0040733
        k(    7) = (   0.0500000   0.0000000   0.0500000), wk =   0.0040733
        k(    8) = (   0.0583333   0.0000000   0.0583333), wk =   0.0040733
        k(    9) = (   0.0666667   0.0000000   0.0666667), wk =   0.0040733
        k(   10) = (   0.0750000   0.0000000   0.0750000), wk =   0.0040733
        k(   11) = (   0.0833333   0.0000000   0.0833333), wk =   0.0040733
        k(   12) = (   0.0916667   0.0000000   0.0916667), wk =   0.0040733
        k(   13) = (   0.1000000   0.0000000   0.1000000), wk =   0.0040733
        k(   14) = (   0.1083333   0.0000000   0.1083333), wk =   0.0040733
        k(   15) = (   0.1166667   0.0000000   0.1166667), wk =   0.0040733
        k(   16) = (   0.1250000   0.0000000   0.1250000), wk =   0.0040733
        k(   17) = (   0.1333333   0.0000000   0.1333333), wk =   0.0040733
        k(   18) = (   0.1416667   0.0000000   0.1416667), wk =   0.0040733
        k(   19) = (   0.1500000   0.0000000   0.1500000), wk =   0.0040733
        k(   20) = (   0.1583333   0.0000000   0.1583333), wk =   0.0040733
        k(   21) = (   0.1666667   0.0000000   0.1666667), wk =   0.0040733
        k(   22) = (   0.1750000   0.0000000   0.1750000), wk =   0.0040733
        k(   23) = (   0.1833333   0.0000000   0.1833333), wk =   0.0040733
        k(   24) = (   0.1916667   0.0000000   0.1916667), wk =   0.0040733
        k(   25) = (   0.2000000   0.0000000   0.2000000), wk =   0.0040733
        k(   26) = (   0.2083333   0.0000000   0.2083333), wk =   0.0040733
        k(   27) = (   0.2166667   0.0000000   0.2166667), wk =   0.0040733
        k(   28) = (   0.2250000   0.0000000   0.2250000), wk =   0.0040733
        k(   29) = (   0.2333333   0.0000000   0.2333333), wk =   0.0040733
        k(   30) = (   0.2416667   0.0000000   0.2416667), wk =   0.0040733
        k(   31) = (   0.2500000   0.0000000   0.2500000), wk =   0.0040733
        k(   32) = (   0.2583333   0.0000000   0.2583333), wk =   0.0040733
        k(   33) = (   0.2666667   0.0000000   0.2666667), wk =   0.0040733
        k(   34) = (   0.2750000   0.0000000   0.2750000), wk =   0.0040733
        k(   35) = (   0.2833333   0.0000000   0.2833333), wk =   0.0040733
        k(   36) = (   0.2916667   0.0000000   0.2916667), wk =   0.0040733
        k(   37) = (   0.3000000   0.0000000   0.3000000), wk =   0.0040733
        k(   38) = (   0.3083333   0.0000000   0.3083333), wk =   0.0040733
        k(   39) = (   0.3166667   0.0000000   0.3166667), wk =   0.0040733
        k(   40) = (   0.3250000   0.0000000   0.3250000), wk =   0.0040733
        k(   41) = (   0.3333333   0.0000000   0.3333333), wk =   0.0040733
        k(   42) = (   0.3416667   0.0000000   0.3416667), wk =   0.0040733
        k(   43) = (   0.3500000   0.0000000   0.3500000), wk =   0.0040733
        k(   44) = (   0.3583333   0.0000000   0.3583333), wk =   0.0040733
        k(   45) = (   0.3666667   0.0000000   0.3666667), wk =   0.0040733
        k(   46) = (   0.3750000   0.0000000   0.3750000), wk =   0.0040733
        k(   47) = (   0.3833333   0.0000000   0.3833333), wk =   0.0040733
        k(   48) = (   0.3916667   0.0000000   0.3916667), wk =   0.0040733
        k(   49) = (   0.4000000   0.0000000   0.4000000), wk =   0.0040733
        k(   50) = (   0.4083333   0.0000000   0.4083333), wk =   0.0040733
        k(   51) = (   0.4166667   0.0000000   0.4166667), wk =   0.0040733
        k(   52) = (   0.4250000   0.0000000   0.4250000), wk =   0.0040733
        k(   53) = (   0.4333333   0.0000000   0.4333333), wk =   0.0040733
        k(   54) = (   0.4416667   0.0000000   0.4416667), wk =   0.0040733
        k(   55) = (   0.4500000   0.0000000   0.4500000), wk =   0.0040733
        k(   56) = (   0.4583333   0.0000000   0.4583333), wk =   0.0040733
        k(   57) = (   0.4666667   0.0000000   0.4666667), wk =   0.0040733
        k(   58) = (   0.4750000   0.0000000   0.4750000), wk =   0.0040733
        k(   59) = (   0.4833333   0.0000000   0.4833333), wk =   0.0040733
        k(   60) = (   0.4916667   0.0000000   0.4916667), wk =   0.0040733
        k(   61) = (   0.5000000   0.0000000   0.5000000), wk =   0.0040733
        k(   62) = (   0.5000000   0.0050000   0.5050000), wk =   0.0040733
        k(   63) = (   0.5000000   0.0100000   0.5100000), wk =   0.0040733
        k(   64) = (   0.5000000   0.0150000   0.5150000), wk =   0.0040733
        k(   65) = (   0.5000000   0.0200000   0.5200000), wk =   0.0040733
        k(   66) = (   0.5000000   0.0250000   0.5250000), wk =   0.0040733
        k(   67) = (   0.5000000   0.0300000   0.5300000), wk =   0.0040733
        k(   68) = (   0.5000000   0.0350000   0.5350000), wk =   0.0040733
        k(   69) = (   0.5000000   0.0400000   0.5400000), wk =   0.0040733
        k(   70) = (   0.5000000   0.0450000   0.5450000), wk =   0.0040733
        k(   71) = (   0.5000000   0.0500000   0.5500000), wk =   0.0040733
        k(   72) = (   0.5000000   0.0550000   0.5550000), wk =   0.0040733
        k(   73) = (   0.5000000   0.0600000   0.5600000), wk =   0.0040733
        k(   74) = (   0.5000000   0.0650000   0.5650000), wk =   0.0040733
        k(   75) = (   0.5000000   0.0700000   0.5700000), wk =   0.0040733
        k(   76) = (   0.5000000   0.0750000   0.5750000), wk =   0.0040733
        k(   77) = (   0.5000000   0.0800000   0.5800000), wk =   0.0040733
        k(   78) = (   0.5000000   0.0850000   0.5850000), wk =   0.0040733
        k(   79) = (   0.5000000   0.0900000   0.5900000), wk =   0.0040733
        k(   80) = (   0.5000000   0.0950000   0.5950000), wk =   0.0040733
        k(   81) = (   0.5000000   0.1000000   0.6000000), wk =   0.0040733
        k(   82) = (   0.5000000   0.1050000   0.6050000), wk =   0.0040733
        k(   83) = (   0.5000000   0.1100000   0.6100000), wk =   0.0040733
        k(   84) = (   0.5000000   0.1150000   0.6150000), wk =   0.0040733
        k(   85) = (   0.5000000   0.1200000   0.6200000), wk =   0.0040733
        k(   86) = (   0.5000000   0.1250000   0.6250000), wk =   0.0040733
        k(   87) = (   0.5000000   0.1300000   0.6300000), wk =   0.0040733
        k(   88) = (   0.5000000   0.1350000   0.6350000), wk =   0.0040733
        k(   89) = (   0.5000000   0.1400000   0.6400000), wk =   0.0040733
        k(   90) = (   0.5000000   0.1450000   0.6450000), wk =   0.0040733
        k(   91) = (   0.5000000   0.1500000   0.6500000), wk =   0.0040733
        k(   92) = (   0.5000000   0.1550000   0.6550000), wk =   0.0040733
        k(   93) = (   0.5000000   0.1600000   0.6600000), wk =   0.0040733
        k(   94) = (   0.5000000   0.1650000   0.6650000), wk =   0.0040733
        k(   95) = (   0.5000000   0.1700000   0.6700000), wk =   0.0040733
        k(   96) = (   0.5000000   0.1750000   0.6750000), wk =   0.0040733
        k(   97) = (   0.5000000   0.1800000   0.6800000), wk =   0.0040733
        k(   98) = (   0.5000000   0.1850000   0.6850000), wk =   0.0040733
        k(   99) = (   0.5000000   0.1900000   0.6900000), wk =   0.0040733
        k(  100) = (   0.5000000   0.1950000   0.6950000), wk =   0.0040733
        k(  101) = (   0.5000000   0.2000000   0.7000000), wk =   0.0040733
        k(  102) = (   0.5000000   0.2050000   0.7050000), wk =   0.0040733
        k(  103) = (   0.5000000   0.2100000   0.7100000), wk =   0.0040733
        k(  104) = (   0.5000000   0.2150000   0.7150000), wk =   0.0040733
        k(  105) = (   0.5000000   0.2200000   0.7200000), wk =   0.0040733
        k(  106) = (   0.5000000   0.2250000   0.7250000), wk =   0.0040733
        k(  107) = (   0.5000000   0.2300000   0.7300000), wk =   0.0040733
        k(  108) = (   0.5000000   0.2350000   0.7350000), wk =   0.0040733
        k(  109) = (   0.5000000   0.2400000   0.7400000), wk =   0.0040733
        k(  110) = (   0.5000000   0.2450000   0.7450000), wk =   0.0040733
        k(  111) = (   0.5000000   0.2500000   0.7500000), wk =   0.0040733
        k(  112) = (   0.4975000   0.2525000   0.7500000), wk =   0.0040733
        k(  113) = (   0.4950000   0.2550000   0.7500000), wk =   0.0040733
        k(  114) = (   0.4925000   0.2575000   0.7500000), wk =   0.0040733
        k(  115) = (   0.4900000   0.2600000   0.7500000), wk =   0.0040733
        k(  116) = (   0.4875000   0.2625000   0.7500000), wk =   0.0040733
        k(  117) = (   0.4850000   0.2650000   0.7500000), wk =   0.0040733
        k(  118) = (   0.4825000   0.2675000   0.7500000), wk =   0.0040733
        k(  119) = (   0.4800000   0.2700000   0.7500000), wk =   0.0040733
        k(  120) = (   0.4775000   0.2725000   0.7500000), wk =   0.0040733
        k(  121) = (   0.4750000   0.2750000   0.7500000), wk =   0.0040733
        k(  122) = (   0.4725000   0.2775000   0.7500000), wk =   0.0040733
        k(  123) = (   0.4700000   0.2800000   0.7500000), wk =   0.0040733
        k(  124) = (   0.4675000   0.2825000   0.7500000), wk =   0.0040733
        k(  125) = (   0.4650000   0.2850000   0.7500000), wk =   0.0040733
        k(  126) = (   0.4625000   0.2875000   0.7500000), wk =   0.0040733
        k(  127) = (   0.4600000   0.2900000   0.7500000), wk =   0.0040733
        k(  128) = (   0.4575000   0.2925000   0.7500000), wk =   0.0040733
        k(  129) = (   0.4550000   0.2950000   0.7500000), wk =   0.0040733
        k(  130) = (   0.4525000   0.2975000   0.7500000), wk =   0.0040733
        k(  131) = (   0.4500000   0.3000000   0.7500000), wk =   0.0040733
        k(  132) = (   0.4475000   0.3025000   0.7500000), wk =   0.0040733
        k(  133) = (   0.4450000   0.3050000   0.7500000), wk =   0.0040733
        k(  134) = (   0.4425000   0.3075000   0.7500000), wk =   0.0040733
        k(  135) = (   0.4400000   0.3100000   0.7500000), wk =   0.0040733
        k(  136) = (   0.4375000   0.3125000   0.7500000), wk =   0.0040733
        k(  137) = (   0.4350000   0.3150000   0.7500000), wk =   0.0040733
        k(  138) = (   0.4325000   0.3175000   0.7500000), wk =   0.0040733
        k(  139) = (   0.4300000   0.3200000   0.7500000), wk =   0.0040733
        k(  140) = (   0.4275000   0.3225000   0.7500000), wk =   0.0040733
        k(  141) = (   0.4250000   0.3250000   0.7500000), wk =   0.0040733
        k(  142) = (   0.4225000   0.3275000   0.7500000), wk =   0.0040733
        k(  143) = (   0.4200000   0.3300000   0.7500000), wk =   0.0040733
        k(  144) = (   0.4175000   0.3325000   0.7500000), wk =   0.0040733
        k(  145) = (   0.4150000   0.3350000   0.7500000), wk =   0.0040733
        k(  146) = (   0.4125000   0.3375000   0.7500000), wk =   0.0040733
        k(  147) = (   0.4100000   0.3400000   0.7500000), wk =   0.0040733
        k(  148) = (   0.4075000   0.3425000   0.7500000), wk =   0.0040733
        k(  149) = (   0.4050000   0.3450000   0.7500000), wk =   0.0040733
        k(  150) = (   0.4025000   0.3475000   0.7500000), wk =   0.0040733
        k(  151) = (   0.4000000   0.3500000   0.7500000), wk =   0.0040733
        k(  152) = (   0.3975000   0.3525000   0.7500000), wk =   0.0040733
        k(  153) = (   0.3950000   0.3550000   0.7500000), wk =   0.0040733
        k(  154) = (   0.3925000   0.3575000   0.7500000), wk =   0.0040733
        k(  155) = (   0.3900000   0.3600000   0.7500000), wk =   0.0040733
        k(  156) = (   0.3875000   0.3625000   0.7500000), wk =   0.0040733
        k(  157) = (   0.3850000   0.3650000   0.7500000), wk =   0.0040733
        k(  158) = (   0.3825000   0.3675000   0.7500000), wk =   0.0040733
        k(  159) = (   0.3800000   0.3700000   0.7500000), wk =   0.0040733
        k(  160) = (   0.3775000   0.3725000   0.7500000), wk =   0.0040733
        k(  161) = (   0.3750000   0.3750000   0.7500000), wk =   0.0040733
        k(  162) = (   0.3675000   0.3675000   0.7350000), wk =   0.0040733
        k(  163) = (   0.3600000   0.3600000   0.7200000), wk =   0.0040733
        k(  164) = (   0.3525000   0.3525000   0.7050000), wk =   0.0040733
        k(  165) = (   0.3450000   0.3450000   0.6900000), wk =   0.0040733
        k(  166) = (   0.3375000   0.3375000   0.6750000), wk =   0.0040733
        k(  167) = (   0.3300000   0.3300000   0.6600000), wk =   0.0040733
        k(  168) = (   0.3225000   0.3225000   0.6450000), wk =   0.0040733
        k(  169) = (   0.3150000   0.3150000   0.6300000), wk =   0.0040733
        k(  170) = (   0.3075000   0.3075000   0.6150000), wk =   0.0040733
        k(  171) = (   0.3000000   0.3000000   0.6000000), wk =   0.0040733
        k(  172) = (   0.2925000   0.2925000   0.5850000), wk =   0.0040733
        k(  173) = (   0.2850000   0.2850000   0.5700000), wk =   0.0040733
        k(  174) = (   0.2775000   0.2775000   0.5550000), wk =   0.0040733
        k(  175) = (   0.2700000   0.2700000   0.5400000), wk =   0.0040733
        k(  176) = (   0.2625000   0.2625000   0.5250000), wk =   0.0040733
        k(  177) = (   0.2550000   0.2550000   0.5100000), wk =   0.0040733
        k(  178) = (   0.2475000   0.2475000   0.4950000), wk =   0.0040733
        k(  179) = (   0.2400000   0.2400000   0.4800000), wk =   0.0040733
        k(  180) = (   0.2325000   0.2325000   0.4650000), wk =   0.0040733
        k(  181) = (   0.2250000   0.2250000   0.4500000), wk =   0.0040733
        k(  182) = (   0.2175000   0.2175000   0.4350000), wk =   0.0040733
        k(  183) = (   0.2100000   0.2100000   0.4200000), wk =   0.0040733
        k(  184) = (   0.2025000   0.2025000   0.4050000), wk =   0.0040733
        k(  185) = (   0.1950000   0.1950000   0.3900000), wk =   0.0040733
        k(  186) = (   0.1875000   0.1875000   0.3750000), wk =   0.0040733
        k(  187) = (   0.1800000   0.1800000   0.3600000), wk =   0.0040733
        k(  188) = (   0.1725000   0.1725000   0.3450000), wk =   0.0040733
        k(  189) = (   0.1650000   0.1650000   0.3300000), wk =   0.0040733
        k(  190) = (   0.1575000   0.1575000   0.3150000), wk =   0.0040733
        k(  191) = (   0.1500000   0.1500000   0.3000000), wk =   0.0040733
        k(  192) = (   0.1425000   0.1425000   0.2850000), wk =   0.0040733
        k(  193) = (   0.1350000   0.1350000   0.2700000), wk =   0.0040733
        k(  194) = (   0.1275000   0.1275000   0.2550000), wk =   0.0040733
        k(  195) = (   0.1200000   0.1200000   0.2400000), wk =   0.0040733
        k(  196) = (   0.1125000   0.1125000   0.2250000), wk =   0.0040733
        k(  197) = (   0.1050000   0.1050000   0.2100000), wk =   0.0040733
        k(  198) = (   0.0975000   0.0975000   0.1950000), wk =   0.0040733
        k(  199) = (   0.0900000   0.0900000   0.1800000), wk =   0.0040733
        k(  200) = (   0.0825000   0.0825000   0.1650000), wk =   0.0040733
        k(  201) = (   0.0750000   0.0750000   0.1500000), wk =   0.0040733
        k(  202) = (   0.0675000   0.0675000   0.1350000), wk =   0.0040733
        k(  203) = (   0.0600000   0.0600000   0.1200000), wk =   0.0040733
        k(  204) = (   0.0525000   0.0525000   0.1050000), wk =   0.0040733
        k(  205) = (   0.0450000   0.0450000   0.0900000), wk =   0.0040733
        k(  206) = (   0.0375000   0.0375000   0.0750000), wk =   0.0040733
        k(  207) = (   0.0300000   0.0300000   0.0600000), wk =   0.0040733
        k(  208) = (   0.0225000   0.0225000   0.0450000), wk =   0.0040733
        k(  209) = (   0.0150000   0.0150000   0.0300000), wk =   0.0040733
        k(  210) = (   0.0075000   0.0075000   0.0150000), wk =   0.0040733
        k(  211) = (   0.0000000   0.0000000   0.0000000), wk =   0.0040733
        k(  212) = (   0.0083333   0.0083333   0.0083333), wk =   0.0040733
        k(  213) = (   0.0166667   0.0166667   0.0166667), wk =   0.0040733
        k(  214) = (   0.0250000   0.0250000   0.0250000), wk =   0.0040733
        k(  215) = (   0.0333333   0.0333333   0.0333333), wk =   0.0040733
        k(  216) = (   0.0416667   0.0416667   0.0416667), wk =   0.0040733
        k(  217) = (   0.0500000   0.0500000   0.0500000), wk =   0.0040733
        k(  218) = (   0.0583333   0.0583333   0.0583333), wk =   0.0040733
        k(  219) = (   0.0666667   0.0666667   0.0666667), wk =   0.0040733
        k(  220) = (   0.0750000   0.0750000   0.0750000), wk =   0.0040733
        k(  221) = (   0.0833333   0.0833333   0.0833333), wk =   0.0040733
        k(  222) = (   0.0916667   0.0916667   0.0916667), wk =   0.0040733
        k(  223) = (   0.1000000   0.1000000   0.1000000), wk =   0.0040733
        k(  224) = (   0.1083333   0.1083333   0.1083333), wk =   0.0040733
        k(  225) = (   0.1166667   0.1166667   0.1166667), wk =   0.0040733
        k(  226) = (   0.1250000   0.1250000   0.1250000), wk =   0.0040733
        k(  227) = (   0.1333333   0.1333333   0.1333333), wk =   0.0040733
        k(  228) = (   0.1416667   0.1416667   0.1416667), wk =   0.0040733
        k(  229) = (   0.1500000   0.1500000   0.1500000), wk =   0.0040733
        k(  230) = (   0.1583333   0.1583333   0.1583333), wk =   0.0040733
        k(  231) = (   0.1666667   0.1666667   0.1666667), wk =   0.0040733
        k(  232) = (   0.1750000   0.1750000   0.1750000), wk =   0.0040733
        k(  233) = (   0.1833333   0.1833333   0.1833333), wk =   0.0040733
        k(  234) = (   0.1916667   0.1916667   0.1916667), wk =   0.0040733
        k(  235) = (   0.2000000   0.2000000   0.2000000), wk =   0.0040733
        k(  236) = (   0.2083333   0.2083333   0.2083333), wk =   0.0040733
        k(  237) = (   0.2166667   0.2166667   0.2166667), wk =   0.0040733
        k(  238) = (   0.2250000   0.2250000   0.2250000), wk =   0.0040733
        k(  239) = (   0.2333333   0.2333333   0.2333333), wk =   0.0040733
        k(  240) = (   0.2416667   0.2416667   0.2416667), wk =   0.0040733
        k(  241) = (   0.2500000   0.2500000   0.2500000), wk =   0.0040733
        k(  242) = (   0.2583333   0.2583333   0.2583333), wk =   0.0040733
        k(  243) = (   0.2666667   0.2666667   0.2666667), wk =   0.0040733
        k(  244) = (   0.2750000   0.2750000   0.2750000), wk =   0.0040733
        k(  245) = (   0.2833333   0.2833333   0.2833333), wk =   0.0040733
        k(  246) = (   0.2916667   0.2916667   0.2916667), wk =   0.0040733
        k(  247) = (   0.3000000   0.3000000   0.3000000), wk =   0.0040733
        k(  248) = (   0.3083333   0.3083333   0.3083333), wk =   0.0040733
        k(  249) = (   0.3166667   0.3166667   0.3166667), wk =   0.0040733
        k(  250) = (   0.3250000   0.3250000   0.3250000), wk =   0.0040733
        k(  251) = (   0.3333333   0.3333333   0.3333333), wk =   0.0040733
        k(  252) = (   0.3416667   0.3416667   0.3416667), wk =   0.0040733
        k(  253) = (   0.3500000   0.3500000   0.3500000), wk =   0.0040733
        k(  254) = (   0.3583333   0.3583333   0.3583333), wk =   0.0040733
        k(  255) = (   0.3666667   0.3666667   0.3666667), wk =   0.0040733
        k(  256) = (   0.3750000   0.3750000   0.3750000), wk =   0.0040733
        k(  257) = (   0.3833333   0.3833333   0.3833333), wk =   0.0040733
        k(  258) = (   0.3916667   0.3916667   0.3916667), wk =   0.0040733
        k(  259) = (   0.4000000   0.4000000   0.4000000), wk =   0.0040733
        k(  260) = (   0.4083333   0.4083333   0.4083333), wk =   0.0040733
        k(  261) = (   0.4166667   0.4166667   0.4166667), wk =   0.0040733
        k(  262) = (   0.4250000   0.4250000   0.4250000), wk =   0.0040733
        k(  263) = (   0.4333333   0.4333333   0.4333333), wk =   0.0040733
        k(  264) = (   0.4416667   0.4416667   0.4416667), wk =   0.0040733
        k(  265) = (   0.4500000   0.4500000   0.4500000), wk =   0.0040733
        k(  266) = (   0.4583333   0.4583333   0.4583333), wk =   0.0040733
        k(  267) = (   0.4666667   0.4666667   0.4666667), wk =   0.0040733
        k(  268) = (   0.4750000   0.4750000   0.4750000), wk =   0.0040733
        k(  269) = (   0.4833333   0.4833333   0.4833333), wk =   0.0040733
        k(  270) = (   0.4916667   0.4916667   0.4916667), wk =   0.0040733
        k(  271) = (   0.5000000   0.5000000   0.5000000), wk =   0.0040733
        k(  272) = (   0.5020833   0.4958333   0.5020833), wk =   0.0040733
        k(  273) = (   0.5041667   0.4916667   0.5041667), wk =   0.0040733
        k(  274) = (   0.5062500   0.4875000   0.5062500), wk =   0.0040733
        k(  275) = (   0.5083333   0.4833333   0.5083333), wk =   0.0040733
        k(  276) = (   0.5104167   0.4791667   0.5104167), wk =   0.0040733
        k(  277) = (   0.5125000   0.4750000   0.5125000), wk =   0.0040733
        k(  278) = (   0.5145833   0.4708333   0.5145833), wk =   0.0040733
        k(  279) = (   0.5166667   0.4666667   0.5166667), wk =   0.0040733
        k(  280) = (   0.5187500   0.4625000   0.5187500), wk =   0.0040733
        k(  281) = (   0.5208333   0.4583333   0.5208333), wk =   0.0040733
        k(  282) = (   0.5229167   0.4541667   0.5229167), wk =   0.0040733
        k(  283) = (   0.5250000   0.4500000   0.5250000), wk =   0.0040733
        k(  284) = (   0.5270833   0.4458333   0.5270833), wk =   0.0040733
        k(  285) = (   0.5291667   0.4416667   0.5291667), wk =   0.0040733
        k(  286) = (   0.5312500   0.4375000   0.5312500), wk =   0.0040733
        k(  287) = (   0.5333333   0.4333333   0.5333333), wk =   0.0040733
        k(  288) = (   0.5354167   0.4291667   0.5354167), wk =   0.0040733
        k(  289) = (   0.5375000   0.4250000   0.5375000), wk =   0.0040733
        k(  290) = (   0.5395833   0.4208333   0.5395833), wk =   0.0040733
        k(  291) = (   0.5416667   0.4166667   0.5416667), wk =   0.0040733
        k(  292) = (   0.5437500   0.4125000   0.5437500), wk =   0.0040733
        k(  293) = (   0.5458333   0.4083333   0.5458333), wk =   0.0040733
        k(  294) = (   0.5479167   0.4041667   0.5479167), wk =   0.0040733
        k(  295) = (   0.5500000   0.4000000   0.5500000), wk =   0.0040733
        k(  296) = (   0.5520833   0.3958333   0.5520833), wk =   0.0040733
        k(  297) = (   0.5541667   0.3916667   0.5541667), wk =   0.0040733
        k(  298) = (   0.5562500   0.3875000   0.5562500), wk =   0.0040733
        k(  299) = (   0.5583333   0.3833333   0.5583333), wk =   0.0040733
        k(  300) = (   0.5604167   0.3791667   0.5604167), wk =   0.0040733
        k(  301) = (   0.5625000   0.3750000   0.5625000), wk =   0.0040733
        k(  302) = (   0.5645833   0.3708333   0.5645833), wk =   0.0040733
        k(  303) = (   0.5666667   0.3666667   0.5666667), wk =   0.0040733
        k(  304) = (   0.5687500   0.3625000   0.5687500), wk =   0.0040733
        k(  305) = (   0.5708333   0.3583333   0.5708333), wk =   0.0040733
        k(  306) = (   0.5729167   0.3541667   0.5729167), wk =   0.0040733
        k(  307) = (   0.5750000   0.3500000   0.5750000), wk =   0.0040733
        k(  308) = (   0.5770833   0.3458333   0.5770833), wk =   0.0040733
        k(  309) = (   0.5791667   0.3416667   0.5791667), wk =   0.0040733
        k(  310) = (   0.5812500   0.3375000   0.5812500), wk =   0.0040733
        k(  311) = (   0.5833333   0.3333333   0.5833333), wk =   0.0040733
        k(  312) = (   0.5854167   0.3291667   0.5854167), wk =   0.0040733
        k(  313) = (   0.5875000   0.3250000   0.5875000), wk =   0.0040733
        k(  314) = (   0.5895833   0.3208333   0.5895833), wk =   0.0040733
        k(  315) = (   0.5916667   0.3166667   0.5916667), wk =   0.0040733
        k(  316) = (   0.5937500   0.3125000   0.5937500), wk =   0.0040733
        k(  317) = (   0.5958333   0.3083333   0.5958333), wk =   0.0040733
        k(  318) = (   0.5979167   0.3041667   0.5979167), wk =   0.0040733
        k(  319) = (   0.6000000   0.3000000   0.6000000), wk =   0.0040733
        k(  320) = (   0.6020833   0.2958333   0.6020833), wk =   0.0040733
        k(  321) = (   0.6041667   0.2916667   0.6041667), wk =   0.0040733
        k(  322) = (   0.6062500   0.2875000   0.6062500), wk =   0.0040733
        k(  323) = (   0.6083333   0.2833333   0.6083333), wk =   0.0040733
        k(  324) = (   0.6104167   0.2791667   0.6104167), wk =   0.0040733
        k(  325) = (   0.6125000   0.2750000   0.6125000), wk =   0.0040733
        k(  326) = (   0.6145833   0.2708333   0.6145833), wk =   0.0040733
        k(  327) = (   0.6166667   0.2666667   0.6166667), wk =   0.0040733
        k(  328) = (   0.6187500   0.2625000   0.6187500), wk =   0.0040733
        k(  329) = (   0.6208333   0.2583333   0.6208333), wk =   0.0040733
        k(  330) = (   0.6229167   0.2541667   0.6229167), wk =   0.0040733
        k(  331) = (   0.6250000   0.2500000   0.6250000), wk =   0.0040733
        k(  332) = (   0.6225000   0.2500000   0.6275000), wk =   0.0040733
        k(  333) = (   0.6200000   0.2500000   0.6300000), wk =   0.0040733
        k(  334) = (   0.6175000   0.2500000   0.6325000), wk =   0.0040733
        k(  335) = (   0.6150000   0.2500000   0.6350000), wk =   0.0040733
        k(  336) = (   0.6125000   0.2500000   0.6375000), wk =   0.0040733
        k(  337) = (   0.6100000   0.2500000   0.6400000), wk =   0.0040733
        k(  338) = (   0.6075000   0.2500000   0.6425000), wk =   0.0040733
        k(  339) = (   0.6050000   0.2500000   0.6450000), wk =   0.0040733
        k(  340) = (   0.6025000   0.2500000   0.6475000), wk =   0.0040733
        k(  341) = (   0.6000000   0.2500000   0.6500000), wk =   0.0040733
        k(  342) = (   0.5975000   0.2500000   0.6525000), wk =   0.0040733
        k(  343) = (   0.5950000   0.2500000   0.6550000), wk =   0.0040733
        k(  344) = (   0.5925000   0.2500000   0.6575000), wk =   0.0040733
        k(  345) = (   0.5900000   0.2500000   0.6600000), wk =   0.0040733
        k(  346) = (   0.5875000   0.2500000   0.6625000), wk =   0.0040733
        k(  347) = (   0.5850000   0.2500000   0.6650000), wk =   0.0040733
        k(  348) = (   0.5825000   0.2500000   0.6675000), wk =   0.0040733
        k(  349) = (   0.5800000   0.2500000   0.6700000), wk =   0.0040733
        k(  350) = (   0.5775000   0.2500000   0.6725000), wk =   0.0040733
        k(  351) = (   0.5750000   0.2500000   0.6750000), wk =   0.0040733
        k(  352) = (   0.5725000   0.2500000   0.6775000), wk =   0.0040733
        k(  353) = (   0.5700000   0.2500000   0.6800000), wk =   0.0040733
        k(  354) = (   0.5675000   0.2500000   0.6825000), wk =   0.0040733
        k(  355) = (   0.5650000   0.2500000   0.6850000), wk =   0.0040733
        k(  356) = (   0.5625000   0.2500000   0.6875000), wk =   0.0040733
        k(  357) = (   0.5600000   0.2500000   0.6900000), wk =   0.0040733
        k(  358) = (   0.5575000   0.2500000   0.6925000), wk =   0.0040733
        k(  359) = (   0.5550000   0.2500000   0.6950000), wk =   0.0040733
        k(  360) = (   0.5525000   0.2500000   0.6975000), wk =   0.0040733
        k(  361) = (   0.5500000   0.2500000   0.7000000), wk =   0.0040733
        k(  362) = (   0.5475000   0.2500000   0.7025000), wk =   0.0040733
[...]
    30.5013  31.4136  32.7247  32.9827  33.1863  34.9102  35.2316  35.7882

          k =-0.5542 0.5542 0.3917 (  4235 PWs)   bands (ev):

    -6.5540  -1.8112   2.6414   3.0732   5.8960   8.7747   9.2332  11.5945
    13.6531  15.0486  15.3134  16.5320  17.2790  18.0310  22.4775  24.0757
    24.3701  24.9100  25.9746  26.0744  28.2217  28.2282  28.8278  29.3144
    30.5032  31.4647  32.5725  32.8259  33.3468  34.9662  35.2473  35.8511

          k =-0.5583 0.5583 0.3833 (  4235 PWs)   bands (ev):

    -6.5474  -1.8060   2.5748   3.0580   5.9607   8.7494   9.2684  11.6178
    13.6407  14.9881  15.2726  16.5680  17.3372  18.1477  22.4457  24.0144
    24.3222  24.9219  26.0124  26.1441  28.0507  28.1369  28.8378  29.3659
    30.5047  31.5071  32.4029  32.6740  33.5266  35.0186  35.2649  35.9207

          k =-0.5625 0.5625 0.3750 (  4237 PWs)   bands (ev):

    -6.5403  -1.8004   2.5068   3.0421   6.0257   8.7252   9.3059  11.6380
    13.6292  14.9313  15.2316  16.6069  17.3968  18.2653  22.4106  23.9557
    24.2747  24.9346  26.0467  26.2146  27.8805  28.0309  28.8639  29.4242
    30.5054  31.5383  32.2296  32.5301  33.7116  35.0658  35.2851  35.9980

          k =-0.5667 0.5667 0.3667 (  4233 PWs)   bands (ev):

    -6.5328  -1.7946   2.4379   3.0252   6.0905   8.7024   9.3456  11.6544
    13.6184  14.8794  15.1905  16.6483  17.4579  18.3837  22.3721  23.8998
    24.2278  24.9480  26.0775  26.2854  27.7117  27.9162  28.9010  29.4879
    30.5048  31.5539  32.0567  32.3992  33.8978  35.1063  35.3084  36.0833

          k =-0.5708 0.5708 0.3583 (  4234 PWs)   bands (ev):

    -6.5249  -1.7885   2.3682   3.0077   6.1545   8.6817   9.3876  11.6665
    13.6081  14.8333  15.1493  16.6919  17.5201  18.5027  22.3304  23.8469
    24.1814  24.9621  26.1046  26.3561  27.5449  27.7972  28.9459  29.5565
    30.5019  31.5472  31.8862  32.2884  34.0827  35.1390  35.3358  36.1764

          k =-0.5750 0.5750 0.3500 (  4234 PWs)   bands (ev):

    -6.5165  -1.7821   2.2981   2.9894   6.2173   8.6634   9.4316  11.6737
    13.5978  14.7941  15.1083  16.7374  17.5834  18.6222  22.2852  23.7972
    24.1356  24.9766  26.1276  26.4258  27.3809  27.6768  28.9964  29.6293
    30.4956  31.5105  31.7198  32.2061  34.2644  35.1627  35.3688  36.2757

          k =-0.5792 0.5792 0.3417 (  4236 PWs)   bands (ev):

    -6.5077  -1.7755   2.2277   2.9705   6.2784   8.6480   9.4777  11.6757
    13.5871  14.7628  15.0676  16.7845  17.6477  18.7419  22.2368  23.7507
    24.0903  24.9915  26.1462  26.4927  27.2218  27.5570  29.0512  29.7059
    30.4841  31.4402  31.5595  32.1565  34.4402  35.1764  35.4098  36.3783

          k =-0.5833 0.5833 0.3333 (  4234 PWs)   bands (ev):

    -6.4985  -1.7688   2.1573   2.9509   6.3371   8.6360   9.5259  11.6723
    13.5751  14.7407  15.0271  16.8332  17.7128  18.8619  22.1852  23.7074
    24.0455  25.0067  26.1599  26.5518  27.0726  27.4399  29.1092  29.7858
    30.4647  31.3408  31.4084  32.1360  34.6063  35.1785  35.4622  36.4768

          k =-0.5875 0.5875 0.3250 (  4234 PWs)   bands (ev):

    -6.4889  -1.7618   2.0870   2.9308   6.3931   8.6279   9.5759  11.6632
    13.5611  14.7285  14.9871  16.8830  17.7786  18.9819  22.1304  23.6674
    24.0012  25.0219  26.1681  26.5875  26.9490  27.3271  29.1697  29.8681
    30.4333  31.2217  31.2706  32.1361  34.7579  35.1671  35.5308  36.5510

          k =-0.5917 0.5917 0.3167 (  4232 PWs)   bands (ev):

    -6.4790  -1.7548   2.0170   2.9102   6.4458   8.6240   9.6279  11.6487
    13.5444  14.7272  14.9476  16.9340  17.8450  19.1018  22.0728  23.6304
    23.9574  25.0368  26.1697  26.5602  26.8905  27.2206  29.2321  29.9518
    30.3846  31.0920  31.1513  32.1492  34.8893  35.1395  35.6210  36.5572

          k =-0.5958 0.5958 0.3083 (  4236 PWs)   bands (ev):

    -6.4686  -1.7476   1.9475   2.8891   6.4948   8.6249   9.6816  11.6288
    13.5244  14.7371  14.9086  16.9859  17.9119  19.2214  22.0126  23.5964
    23.9140  25.0511  26.1639  26.4572  26.9101  27.1224  29.2957  30.0349
    30.3137  30.9591  31.0558  32.1702  34.9970  35.0925  35.7362  36.4867

          k =-0.6000 0.6000 0.3000 (  4230 PWs)   bands (ev):

    -6.4579  -1.7403   1.8786   2.8676   6.5397   8.6308   9.7371  11.6038
    13.5008  14.7584  14.8703  17.0385  17.9793  19.3406  21.9499  23.5652
    23.8709  25.0644  26.1493  26.3203  26.9661  27.0345  29.3599  30.1133
    30.2184  30.8304  30.9862  32.1962  35.0231  35.0816  35.8757  36.3916

          k =-0.6042 0.6042 0.2917 (  4240 PWs)   bands (ev):

    -6.4469  -1.7331   1.8104   2.8457   6.5800   8.6421   9.7942  11.5741
    13.4736  14.7909  14.8327  17.0918  18.0471  19.4592  21.8850  23.5364
    23.8280  25.0760  26.1254  26.1730  26.9589  27.0349  29.4238  30.1014
    30.1778  30.7179  30.9399  32.2254  34.9294  35.1474  36.0349  36.3035

          k =-0.6083 0.6083 0.2833 (  4234 PWs)   bands (ev):

    -6.4356  -1.7258   1.7431   2.8235   6.6156   8.6589   9.8530  11.5401
    13.4430  14.7958  14.8340  17.1455  18.1152  19.5770  21.8183  23.5101
    23.7851  25.0852  26.0231  26.0921  26.8967  27.1092  29.4858  29.9679
    30.2071  30.6450  30.9118  32.2571  34.8117  35.1998  36.2081  36.2324

          k =-0.6125 0.6125 0.2750 (  4238 PWs)   bands (ev):

    -6.4240  -1.7186   1.6769   2.8011   6.6462   8.6814   9.9133  11.5023
    13.4093  14.7596  14.8870  17.1996  18.1835  19.6938  21.7499  23.4858
    23.7421  25.0910  25.8732  26.0509  26.8480  27.1862  29.5426  29.8233
    30.1779  30.6387  30.8966  32.2906  34.6724  35.2431  36.1799  36.3908

          k =-0.6167 0.6167 0.2667 (  4236 PWs)   bands (ev):

    -6.4121  -1.7115   1.6117   2.7784   6.6718   8.7094   9.9750  11.4612
    13.3729  14.7244  14.9492  17.2539  18.2518  19.8094  21.6802  23.4633
    23.6987  25.0921  25.7247  26.0044  26.8116  27.2646  29.5876  29.6718
    30.1066  30.6897  30.8904  32.3257  34.5153  35.2805  36.1440  36.5792

          k =-0.6208 0.6208 0.2583 (  4236 PWs)   bands (ev):

    -6.3999  -1.7045   1.5479   2.7555   6.6924   8.7429  10.0381  11.4172
    13.3344  14.6900  15.0195  17.3084  18.3203  19.9233  21.6094  23.4425
    23.6547  25.0871  25.5786  25.9565  26.7858  27.3437  29.5163  29.6053
    30.0369  30.7691  30.8904  32.3625  34.3446  35.3140  36.1218  36.7705

          k =-0.6250 0.6250 0.2500 (  4242 PWs)   bands (ev):

    -6.3875  -1.6977   1.4854   2.7325   6.7081   8.7816  10.1026  11.3710
    13.2942  14.6566  15.0973  17.3628  18.3886  20.0354  21.5379  23.4231
    23.6098  25.0743  25.4355  25.9113  26.7682  27.4229  29.3590  29.5740
    30.0068  30.8611  30.8948  32.4009  34.1640  35.3448  36.1102  36.9622

          k =-0.6292 0.6292 0.2417 (  4240 PWs)   bands (ev):

    -6.3749  -1.6911   1.4244   2.7095   6.7193   8.8249  10.1682  11.3230
    13.2527  14.6242  15.1817  17.4171  18.4569  20.1452  21.4658  23.4048
    23.5635  25.0527  25.2961  25.8725  26.7568  27.5013  29.2016  29.4915
    30.0250  30.9024  30.9586  32.4409  33.9767  35.3738  36.1070  37.1507

          k =-0.6333 0.6333 0.2333 (  4244 PWs)   bands (ev):

    -6.3621  -1.6848   1.3650   2.6863   6.7261   8.8724  10.2350  11.2739
    13.2103  14.5928  15.2720  17.4711  18.5249  20.2522  21.3936  23.3876
    23.5155  25.0215  25.1610  25.8429  26.7497  27.5781  29.0458  29.3790
    30.0732  30.9126  31.0584  32.4824  33.7857  35.4015  36.1101  37.3305

          k =-0.6375 0.6375 0.2250 (  4242 PWs)   bands (ev):

    -6.3491  -1.6788   1.3073   2.6632   6.7290   8.9233  10.3028  11.2243
    13.1672  14.5625  15.3676  17.5249  18.5925  20.3558  21.3216  23.3711
    23.4651  24.9814  25.0309  25.8237  26.7454  27.6514  28.8936  29.2534
    30.1363  30.9247  31.1584  32.5247  33.5936  35.4283  36.1182  37.4907

          k =-0.6417 0.6417 0.2167 (  4240 PWs)   bands (ev):

    -6.3359  -1.6733   1.2515   2.6400   6.7283   8.9770  10.3716  11.1748
    13.1237  14.5334  15.4679  17.5781  18.6598  20.4551  21.2504  23.3554
    23.4117  24.9066  24.9339  25.8149  26.7428  27.7185  28.7484  29.1231
    30.2069  30.9383  31.2570  32.5663  33.4043  35.4544  36.1302  37.6110

          k =-0.6458 0.6458 0.2083 (  4240 PWs)   bands (ev):

    -6.3227  -1.6681   1.1976   2.6170   6.7244   9.0326  10.4413  11.1261
    13.0800  14.5055  15.5724  17.6309  18.7264  20.5488  21.1808  23.3404
    23.3546  24.7890  24.8812  25.8155  26.7408  27.7737  28.6158  28.9921
    30.2819  30.9533  31.3527  32.6020  33.2248  35.4800  36.1454  37.6696

          k =-0.6500 0.6500 0.2000 (  4236 PWs)   bands (ev):

    -6.3093  -1.6635   1.1457   2.5940   6.7177   9.0892  10.5118  11.0790
    13.0363  14.4790  15.6807  17.6829  18.7924  20.6348  21.1146  23.2932
    23.3261  24.6788  24.8258  25.8239  26.7384  27.8066  28.5066  28.8627
    30.3596  30.9693  31.4440  32.6164  33.0726  35.5051  36.1632  37.6703

          k =-0.6542 0.6542 0.1917 (  4238 PWs)   bands (ev):

    -6.2959  -1.6594   1.0960   2.5712   6.7086   9.1456  10.5830  11.0345
    12.9928  14.4537  15.7923  17.7342  18.8576  20.7082  21.0558  23.2268
    23.3126  24.5769  24.7700  25.8387  26.7349  27.8011  28.4368  28.7367
    30.4389  30.9863  31.5288  32.5736  32.9860  35.5298  36.1833  37.6365

          k =-0.6583 0.6583 0.1833 (  4235 PWs)   bands (ev):

    -6.2825  -1.6559   1.0486   2.5485   6.6974   9.2008  10.6548  10.9935
    12.9495  14.4299  15.9068  17.7847  18.9219  20.7581  21.0149  23.1548
    23.3003  24.4839  24.7160  25.8582  26.7294  27.7459  28.4180  28.6155
    30.5192  31.0041  31.6041  32.4578  32.9845  35.5541  36.2051  37.5862

          k =-0.6625 0.6625 0.1750 (  4235 PWs)   bands (ev):

    -6.2691  -1.6530   1.0036   2.5261   6.6844   9.2534  10.7270  10.9572
    12.9064  14.4077  16.0239  17.8342  18.9850  20.7658  21.0097  23.0769
    23.2897  24.4003  24.6654  25.8813  26.7212  27.6476  28.4434  28.5004
    30.5996  31.0226  31.6636  32.3101  33.0339  35.5778  36.2286  37.5286

          k =-0.6667 0.6667 0.1667 (  4223 PWs)   bands (ev):

    -6.2557  -1.6508   0.9609   2.5038   6.6701   9.3020  10.7996  10.9269
    12.8638  14.3870  16.1432  17.8827  19.0469  20.7316  21.0389  22.9931
    23.2813  24.3264  24.6196  25.9065  26.7096  27.5228  28.3927  28.4968
    30.6788  31.0418  31.6923  32.1731  33.1076  35.6011  36.2535  37.4679

          k =-0.6708 0.6708 0.1583 (  4233 PWs)   bands (ev):

    -6.2424  -1.6493   0.9209   2.4818   6.6545   9.3449  10.8724  10.9040
    12.8217  14.3680  16.2644  17.9301  19.1073  20.6769  21.0804  22.9035
    23.2759  24.2621  24.5795  25.9324  26.6943  27.3837  28.2939  28.5658
    30.7550  31.0616  31.6608  32.0883  33.1958  35.6237  36.2796  37.4067

          k =-0.6750 0.6750 0.1500 (  4233 PWs)   bands (ev):

    -6.2292  -1.6485   0.8834   2.4601   6.6379   9.3808  10.8898  10.9454
    12.7800  14.3508  16.3870  17.9765  19.1661  20.6144  21.1206  22.8087
    23.2745  24.2072  24.5458  25.9575  26.6752  27.2370  28.2051  28.6438
    30.8236  31.0819  31.5598  32.0731  33.2948  35.6455  36.3068  37.3463

          k =-0.6792 0.6792 0.1417 (  4231 PWs)   bands (ev):

    -6.2161  -1.6485   0.8486   2.4387   6.6207   9.4082  10.8858  11.0183
    12.7390  14.3355  16.5107  18.0217  19.2229  20.5490  21.1539  22.7093
    23.2779  24.1611  24.5189  25.9797  26.6530  27.0863  28.1274  28.7272
    30.8735  31.1027  31.4325  32.0974  33.4024  35.6664  36.3349  37.2876

          k =-0.6833 0.6833 0.1333 (  4233 PWs)   bands (ev):

    -6.2032  -1.6493   0.8166   2.4177   6.6028   9.4259  10.8929  11.0910
    12.6985  14.3223  16.6351  18.0660  19.2776  20.4825  21.1779  22.6063
    23.2870  24.1231  24.4989  25.9962  26.6297  26.9334  28.0614  28.8142
    30.8767  31.1240  31.3338  32.1358  33.5175  35.6861  36.3639  37.2313

          k =-0.6875 0.6875 0.1250 (  4235 PWs)   bands (ev):

    -6.1906  -1.6508   0.7874   2.3970   6.5846   9.4334  10.9117  11.1633
    12.6586  14.3112  16.7595  18.1094  19.3299  20.4158  21.1914  22.5004
    23.3022  24.0927  24.4860  26.0034  26.6083  26.7795  28.0075  28.9036
    30.7994  31.1457  31.3083  32.1783  33.6390  35.7046  36.3935  37.1779

          k =-0.6917 0.6917 0.1167 (  4233 PWs)   bands (ev):

    -6.1782  -1.6531   0.7610   2.3767   6.5662   9.4304  10.9422  11.2351
    12.6195  14.3024  16.8833  18.1521  19.3794  20.3494  21.1944  22.3928
    23.3240  24.0692  24.4799  25.9971  26.5932  26.6254  27.9655  28.9948
    30.6576  31.1679  31.3445  32.2217  33.7662  35.7214  36.4237  37.1280

          k =-0.6958 0.6958 0.1083 (  4226 PWs)   bands (ev):

    -6.1662  -1.6562   0.7375   2.3568   6.5476   9.4175  10.9839  11.3062
    12.5810  14.2961  17.0057  18.1946  19.4257  20.2835  21.1869  22.2844
    23.3521  24.0519  24.4805  25.9740  26.4714  26.5883  27.9344  29.0872
    30.4872  31.1905  31.4083  32.2647  33.8984  35.7365  36.4541  37.0819

          k =-0.7000 0.7000 0.1000 (  4227 PWs)   bands (ev):

    -6.1545  -1.6599   0.7169   2.3374   6.5291   9.3954  11.0358  11.3764
    12.5434  14.2924  17.1258  18.2375  19.4685  20.2184  21.1699  22.1760
    23.3862  24.0401  24.4875  25.9325  26.3180  26.5959  27.9133  29.1806
    30.3061  31.2136  31.4831  32.3073  34.0347  35.7494  36.4846  37.0402

          k =-0.7042 0.7042 0.0917 (  4229 PWs)   bands (ev):

    -6.1432  -1.6643   0.6992   2.3184   6.5106   9.3653  11.0967  11.4455
    12.5066  14.2915  17.2421  18.2815  19.5072  20.1541  21.1445  22.0686
    23.4253  24.0335  24.5006  25.8742  26.1655  26.6160  27.9006  29.2746
    30.1214  31.2372  31.5620  32.3499  34.1748  35.7600  36.5146  37.0032

          k =-0.7083 0.7083 0.0833 (  4227 PWs)   bands (ev):

    -6.1324  -1.6692   0.6844   2.2998   6.4924   9.3283  11.1654  11.5133
    12.4707  14.2935  17.3529  18.3280  19.5413  20.0908  21.1121  21.9632
    23.4685  24.0314  24.5195  25.8022  26.0142  26.6466  27.8947  29.3690
    29.9368  31.2613  31.6420  32.3931  34.3179  35.7679  36.5435  36.9713

          k =-0.7125 0.7125 0.0750 (  4229 PWs)   bands (ev):

    -6.1220  -1.6747   0.6724   2.2818   6.4744   9.2856  11.2404  11.5795
    12.4360  14.2988  17.4563  18.3785  19.5702  20.0284  21.0741  21.8606
    23.5146  24.0334  24.5440  25.7202  25.8645  26.6853  27.8936  29.4636
    29.7548  31.2859  31.7209  32.4378  34.4637  35.7731  36.5700  36.9447

          k =-0.7167 0.7167 0.0667 (  4227 PWs)   bands (ev):

    -6.1122  -1.6806   0.6632   2.2643   6.4568   9.2382  11.3205  11.6440
    12.4025  14.3074  17.5499  18.4346  19.5931  19.9672  21.0321  21.7617
    23.5622  24.0388  24.5738  25.6316  25.7167  26.7302  27.8952  29.5582
    29.5777  31.3113  31.7973  32.4850  34.6117  35.7753  36.5916  36.9238

          k =-0.7208 0.7208 0.0583 (  4226 PWs)   bands (ev):

    -6.1030  -1.6869   0.6569   2.2473   6.4395   9.1869  11.4046  11.7064
    12.3706  14.3195  17.6313  18.4981  19.6094  19.9073  20.9877  21.6676
    23.6098  24.0471  24.6084  25.5394  25.5714  26.7796  27.8967  29.4080
    29.6525  31.3374  31.8697  32.5358  34.7613  35.7746  36.6032  36.9086

          k =-0.7250 0.7250 0.0500 (  4228 PWs)   bands (ev):

    -6.0944  -1.6933   0.6532   2.2308   6.4227   9.1327  11.4912  11.7666
    12.3407  14.3355  17.6987  18.5699  19.6182  19.8492  20.9422  21.5791
    23.6558  24.0575  24.6474  25.4292  25.4463  26.8322  27.8948  29.2491
    29.7463  31.3644  31.9366  32.5913  34.9121  35.7710  36.5944  36.8991

          k =-0.7292 0.7292 0.0417 (  4226 PWs)   bands (ev):

    -6.0865  -1.6999   0.6521   2.2149   6.4064   9.0760  11.5791  11.8244
    12.3136  14.3554  17.7508  18.6499  19.6187  19.7936  20.8970  21.4973
    23.6986  24.0688  24.6903  25.2912  25.3551  26.8868  27.8849  29.1057
    29.8393  31.3924  31.9970  32.6526  35.0635  35.7647  36.5497  36.8952

          k =-0.7333 0.7333 0.0333 (  4224 PWs)   bands (ev):

    -6.0794  -1.7065   0.6537   2.1996   6.3907   9.0175  11.6663  11.8794
    12.2907  14.3794  17.7878  18.7362  19.6102  19.7418  20.8534  21.4230
    23.7362  24.0793  24.7360  25.1591  25.2688  26.9422  27.8617  28.9836
    29.9312  31.4218  32.0500  32.7204  35.2145  35.7560  36.4610  36.8968

          k =-0.7375 0.7375 0.0250 (  4224 PWs)   bands (ev):

    -6.0730  -1.7129   0.6577   2.1848   6.3755   8.9575  11.7499  11.9316
    12.2741  14.4076  17.8107  18.8251  19.5921  19.6962  20.8124  21.3569
    23.7665  24.0866  24.7828  25.0352  25.1913  26.9972  27.8198  28.8890
    30.0216  31.4528  32.0952  32.7949  35.3639  35.7453  36.3360  36.9034

          k =-0.7417 0.7417 0.0167 (  4222 PWs)   bands (ev):

    -6.0675  -1.7191   0.6641   2.1707   6.3609   8.8965  11.8253  11.9808
    12.2682  14.4403  17.8208  18.9105  19.5640  19.6609  20.7750  21.2994
    23.7871  24.0867  24.8269  24.9235  25.1288  27.0496  27.7567  28.8262
    30.1100  31.4856  32.1328  32.8759  35.5088  35.7329  36.1894  36.9149

          k =-0.7458 0.7458 0.0083 (  4222 PWs)   bands (ev):

    -6.0628  -1.7249   0.6729   2.1571   6.3470   8.8347  11.8857  12.0268
    12.2794  14.4775  17.8196  18.9835  19.5258  19.6430  20.7421  21.2508
    23.7955  24.0743  24.8292  24.8603  25.0915  27.0949  27.6762  28.7955
    30.1961  31.5208  32.1631  32.9627  35.6405  35.7194  36.0382  36.9188

          k =-0.7500 0.7500 0.0000 (  4222 PWs)   bands (ev):

    -6.0591  -1.7301   0.6838   2.1442   6.3337   8.7724  11.9241  12.0695
    12.3144  14.5193  17.8086  19.0333  19.4779  19.6514  20.7147  21.2107
    23.7895  24.0427  24.7590  24.8727  25.0919  27.1239  27.5914  28.7932
    30.2793  31.5586  32.1866  33.0548  35.7052  35.7062  35.9395  36.9051

     Writing all to output data dir ./work/InAs.save/
 
     init_run     :      0.05s CPU      0.07s WALL (       1 calls)
     electrons    :     84.75s CPU     86.99s WALL (       1 calls)

     Called by init_run:
     wfcinit      :      0.00s CPU      0.00s WALL (       1 calls)
     wfcinit:atom :      0.03s CPU      0.04s WALL (     491 calls)
     wfcinit:wfcr :      2.92s CPU      3.21s WALL (     491 calls)
     potinit      :      0.00s CPU      0.00s WALL (       1 calls)
     hinit0       :      0.02s CPU      0.04s WALL (       1 calls)

     Called by electrons:
     c_bands      :     84.75s CPU     86.98s WALL (       1 calls)
     v_of_rho     :      0.00s CPU      0.00s WALL (       1 calls)
     v_h          :      0.00s CPU      0.00s WALL (       1 calls)
     v_xc         :      0.00s CPU      0.00s WALL (       1 calls)

     Called by c_bands:
     init_us_2    :      0.04s CPU      0.05s WALL (     491 calls)
     init_us_2:cp :      0.04s CPU      0.05s WALL (     491 calls)
     cegterg      :     81.12s CPU     82.98s WALL (    1048 calls)

     Called by sum_band:

     Called by *egterg:
     cdiaghg      :     22.34s CPU     22.80s WALL (   17022 calls)
     cegterg:over :      3.19s CPU      3.30s WALL (   16531 calls)
     cegterg:upda :      1.28s CPU      1.31s WALL (   16531 calls)
     cegterg:last :      2.08s CPU      2.12s WALL (    8927 calls)
     h_psi        :     53.53s CPU     55.03s WALL (   18070 calls)
     g_psi        :      0.35s CPU      0.35s WALL (   16531 calls)

     Called by h_psi:
     h_psi:calbec :      1.13s CPU      1.16s WALL (   18070 calls)
     vloc_psi     :     51.46s CPU     52.91s WALL (   18070 calls)
     add_vuspsi   :      0.72s CPU      0.75s WALL (   18070 calls)

     General routines
     calbec       :      1.09s CPU      1.12s WALL (   18070 calls)
     fft          :      0.00s CPU      0.02s WALL (       3 calls)
     fftw         :     47.59s CPU     48.93s WALL (  589116 calls)
     davcio       :      0.25s CPU      0.29s WALL (     982 calls)
 
     Parallel routines
 
     PWSCF        :   1m26.48s CPU   1m29.77s WALL

 
   This run was terminated on:  10:25: 0   1Feb2023            

=------------------------------------------------------------------------------=
   JOB DONE.
=------------------------------------------------------------------------------=
