
     Program PWSCF v.7.1 starts on 30Jan2023 at 16:45:55 

     This program is part of the open-source Quantum ESPRESSO suite
     for quantum simulation of materials; please cite
         "P. Giannozzi et al., J. Phys.:Condens. Matter 21 395502 (2009);
         "P. Giannozzi et al., J. Phys.:Condens. Matter 29 465901 (2017);
         "P. Giannozzi et al., J. Chem. Phys. 152 154105 (2020);
          URL http://www.quantum-espresso.org", 
     in publications or presentations arising from this work. More details at
     http://www.quantum-espresso.org/quote

     Parallel version (MPI), running on    20 processors

     MPI processes distributed on     1 nodes
     114949 MiB available memory on the printing compute node when the environment starts
 
     Waiting for input...
     Reading input from standard input

     Current dimensions of program PWSCF are:
     Max number of different atomic species (ntypx) = 10
     Max number of k-points (npk) =  40000
     Max angular momentum in pseudopotentials (lmaxx) =  4
 
     R & G space division:  proc/nbgrp/npool/nimage =      20
     Subspace diagonalization in iterative solution of the eigenvalue problem:
     a serial algorithm will be used

 
     Parallelization info
     --------------------
     sticks:   dense  smooth     PW     G-vecs:    dense   smooth      PW
     Min          60      60     18                 1378     1378     228
     Max          61      61     19                 1381     1381     231
     Sum        1201    1201    361                27581    27581    4573
 
     Using Slab Decomposition
 


     bravais-lattice index     =            2
     lattice parameter (alat)  =      10.4474  a.u.
     unit-cell volume          =     285.0788 (a.u.)^3
     number of atoms/cell      =            2
     number of atomic types    =            2
     number of electrons       =         8.00
     number of Kohn-Sham states=           32
     kinetic-energy cutoff     =      80.0000  Ry
     charge density cutoff     =     320.0000  Ry
     scf convergence threshold =      1.0E-10
     mixing beta               =       0.1500
     number of iterations used =            8  plain     mixing
     Exchange-correlation= SLA-PZ-NOGX-NOGC
                           (   1   1   0   0   0   0   0)

     celldm(1)=  10.447402  celldm(2)=   0.000000  celldm(3)=   0.000000
     celldm(4)=   0.000000  celldm(5)=   0.000000  celldm(6)=   0.000000

     crystal axes: (cart. coord. in units of alat)
               a(1) = (  -0.500000   0.000000   0.500000 )  
               a(2) = (   0.000000   0.500000   0.500000 )  
               a(3) = (  -0.500000   0.500000   0.000000 )  

     reciprocal axes: (cart. coord. in units 2 pi/alat)
               b(1) = ( -1.000000 -1.000000  1.000000 )  
               b(2) = (  1.000000  1.000000  1.000000 )  
               b(3) = ( -1.000000  1.000000 -1.000000 )  


     PseudoPot. # 1 for Ga read from file:
     ../../pseudo/Ga.pz-hgh.upf
     MD5 check sum: 9a76aebca20297769771d7f9bb2cf22c
     Pseudo is Norm-conserving, Zval =  3.0
     Generated in analytical, separable form
     Using radial grid of 1205 points,  6 beta functions with: 
                l(1) =   0
                l(2) =   0
                l(3) =   0
                l(4) =   1
                l(5) =   1
                l(6) =   2

     PseudoPot. # 2 for As read from file:
     ../../pseudo/As.pz-hgh.upf
     MD5 check sum: 8bce9ee3be4f31c0b3268c76e624ca74
     Pseudo is Norm-conserving, Zval =  5.0
     Generated in analytical, separable form
     Using radial grid of 1209 points,  6 beta functions with: 
                l(1) =   0
                l(2) =   0
                l(3) =   0
                l(4) =   1
                l(5) =   1
                l(6) =   2

     atomic species   valence    mass     pseudopotential
        Ga             3.00    68.92600     Ga( 1.00)
        As             5.00    74.92200     As( 1.00)

     24 Sym. Ops. (no inversion) found



   Cartesian axes

     site n.     atom                  positions (alat units)
         1           Ga  tau(   1) = (   0.0000000   0.0000000   0.0000000  )
         2           As  tau(   2) = (  -0.2500000   0.2500000   0.2500000  )

     number of k points=    60
                       cart. coord. in units 2pi/alat
        k(    1) = (  -0.0625000   0.0625000   0.0625000), wk =   0.0078125
        k(    2) = (  -0.1875000   0.1875000  -0.0625000), wk =   0.0234375
        k(    3) = (  -0.3125000   0.3125000  -0.1875000), wk =   0.0234375
        k(    4) = (  -0.4375000   0.4375000  -0.3125000), wk =   0.0234375
        k(    5) = (   0.4375000  -0.4375000   0.5625000), wk =   0.0234375
        k(    6) = (   0.3125000  -0.3125000   0.4375000), wk =   0.0234375
        k(    7) = (   0.1875000  -0.1875000   0.3125000), wk =   0.0234375
        k(    8) = (   0.0625000  -0.0625000   0.1875000), wk =   0.0234375
        k(    9) = (  -0.0625000   0.3125000   0.0625000), wk =   0.0234375
        k(   10) = (  -0.1875000   0.4375000  -0.0625000), wk =   0.0468750
        k(   11) = (  -0.3125000   0.5625000  -0.1875000), wk =   0.0468750
        k(   12) = (   0.5625000  -0.3125000   0.6875000), wk =   0.0468750
        k(   13) = (   0.4375000  -0.1875000   0.5625000), wk =   0.0468750
        k(   14) = (   0.3125000  -0.0625000   0.4375000), wk =   0.0468750
        k(   15) = (   0.1875000   0.0625000   0.3125000), wk =   0.0468750
        k(   16) = (  -0.0625000   0.5625000   0.0625000), wk =   0.0234375
        k(   17) = (  -0.1875000   0.6875000  -0.0625000), wk =   0.0468750
        k(   18) = (   0.6875000  -0.1875000   0.8125000), wk =   0.0468750
        k(   19) = (   0.5625000  -0.0625000   0.6875000), wk =   0.0468750
        k(   20) = (   0.4375000   0.0625000   0.5625000), wk =   0.0468750
        k(   21) = (   0.3125000   0.1875000   0.4375000), wk =   0.0468750
        k(   22) = (  -0.0625000   0.8125000   0.0625000), wk =   0.0234375
        k(   23) = (   0.8125000  -0.0625000   0.9375000), wk =   0.0468750
        k(   24) = (   0.6875000   0.0625000   0.8125000), wk =   0.0468750
        k(   25) = (   0.5625000   0.1875000   0.6875000), wk =   0.0468750
        k(   26) = (   0.4375000   0.3125000   0.5625000), wk =   0.0468750
        k(   27) = (  -0.0625000  -0.9375000   0.0625000), wk =   0.0234375
        k(   28) = (  -0.1875000  -0.8125000  -0.0625000), wk =   0.0468750
        k(   29) = (  -0.3125000  -0.6875000  -0.1875000), wk =   0.0468750
        k(   30) = (  -0.0625000  -0.6875000   0.0625000), wk =   0.0234375
        k(   31) = (  -0.1875000  -0.5625000  -0.0625000), wk =   0.0468750
        k(   32) = (  -0.0625000  -0.4375000   0.0625000), wk =   0.0234375
        k(   33) = (  -0.1875000   0.1875000   0.1875000), wk =   0.0078125
        k(   34) = (  -0.3125000   0.3125000   0.0625000), wk =   0.0234375
        k(   35) = (  -0.4375000   0.4375000  -0.0625000), wk =   0.0234375
        k(   36) = (   0.4375000  -0.4375000   0.8125000), wk =   0.0234375
        k(   37) = (   0.3125000  -0.3125000   0.6875000), wk =   0.0234375
        k(   38) = (   0.1875000  -0.1875000   0.5625000), wk =   0.0234375
        k(   39) = (  -0.1875000   0.4375000   0.1875000), wk =   0.0234375
        k(   40) = (  -0.3125000   0.5625000   0.0625000), wk =   0.0468750
        k(   41) = (   0.5625000  -0.3125000   0.9375000), wk =   0.0468750
        k(   42) = (   0.4375000  -0.1875000   0.8125000), wk =   0.0468750
        k(   43) = (   0.3125000  -0.0625000   0.6875000), wk =   0.0468750
        k(   44) = (  -0.1875000   0.6875000   0.1875000), wk =   0.0234375
        k(   45) = (   0.6875000  -0.1875000   1.0625000), wk =   0.0468750
        k(   46) = (   0.5625000  -0.0625000   0.9375000), wk =   0.0468750
        k(   47) = (   0.4375000   0.0625000   0.8125000), wk =   0.0468750
        k(   48) = (  -0.1875000  -1.0625000   0.1875000), wk =   0.0234375
        k(   49) = (  -0.3125000  -0.9375000   0.0625000), wk =   0.0468750
        k(   50) = (  -0.1875000  -0.8125000   0.1875000), wk =   0.0234375
        k(   51) = (  -0.3125000   0.3125000   0.3125000), wk =   0.0078125
        k(   52) = (  -0.4375000   0.4375000   0.1875000), wk =   0.0234375
        k(   53) = (   0.4375000  -0.4375000   1.0625000), wk =   0.0234375
        k(   54) = (   0.3125000  -0.3125000   0.9375000), wk =   0.0234375
        k(   55) = (  -0.3125000   0.5625000   0.3125000), wk =   0.0234375
        k(   56) = (   0.5625000  -0.3125000   1.1875000), wk =   0.0468750
        k(   57) = (   0.4375000  -0.1875000   1.0625000), wk =   0.0468750
        k(   58) = (  -0.3125000  -1.1875000   0.3125000), wk =   0.0234375
        k(   59) = (  -0.4375000   0.4375000   0.4375000), wk =   0.0078125
        k(   60) = (   0.4375000  -0.4375000   1.3125000), wk =   0.0234375

     Dense  grid:    27581 G-vectors     FFT dimensions: (  45,  45,  45)

     Estimated max dynamical RAM per process >       9.64 MB

     Estimated total dynamical RAM >     192.76 MB

     Initial potential from superposition of free atoms

     starting charge       6.0000, renormalised to       8.0000
     Starting wfcs are   18 randomized atomic wfcs +   14 random wfcs

     total cpu time spent up to now is        0.5 secs

     Self-consistent Calculation

     iteration #  1     ecut=    80.00 Ry     beta= 0.15
     Davidson diagonalization with overlap
     ethr =  1.00E-02,  avg # of iterations =  6.7

     total cpu time spent up to now is        3.1 secs

     total energy              =     -17.36071818 Ry
     estimated scf accuracy    <       0.12090835 Ry

     iteration #  2     ecut=    80.00 Ry     beta= 0.15
     Davidson diagonalization with overlap
     ethr =  1.51E-03,  avg # of iterations =  1.1

     total cpu time spent up to now is        4.1 secs

     total energy              =     -17.32993268 Ry
     estimated scf accuracy    <       0.07316624 Ry

     iteration #  3     ecut=    80.00 Ry     beta= 0.15
     Davidson diagonalization with overlap
     ethr =  9.15E-04,  avg # of iterations =  1.6

     total cpu time spent up to now is        5.3 secs

     total energy              =     -17.33716665 Ry
     estimated scf accuracy    <       0.00541866 Ry

     iteration #  4     ecut=    80.00 Ry     beta= 0.15
     Davidson diagonalization with overlap
     ethr =  6.77E-05,  avg # of iterations =  3.8

     total cpu time spent up to now is        6.6 secs

     total energy              =     -17.33755959 Ry
     estimated scf accuracy    <       0.00015086 Ry

     iteration #  5     ecut=    80.00 Ry     beta= 0.15
     Davidson diagonalization with overlap
     ethr =  1.89E-06,  avg # of iterations =  5.3

     total cpu time spent up to now is        8.0 secs

     total energy              =     -17.33753528 Ry
     estimated scf accuracy    <       0.00008076 Ry

     iteration #  6     ecut=    80.00 Ry     beta= 0.15
     Davidson diagonalization with overlap
     ethr =  1.01E-06,  avg # of iterations =  1.2

     total cpu time spent up to now is        9.1 secs

     total energy              =     -17.33754026 Ry
     estimated scf accuracy    <       0.00000005 Ry

     iteration #  7     ecut=    80.00 Ry     beta= 0.15
     Davidson diagonalization with overlap
     c_bands:  1 eigenvalues not converged
     ethr =  6.12E-10,  avg # of iterations =  7.6

     total cpu time spent up to now is       11.3 secs

     total energy              =     -17.33754028 Ry
     estimated scf accuracy    <       0.00000002 Ry

     iteration #  8     ecut=    80.00 Ry     beta= 0.15
     Davidson diagonalization with overlap
     c_bands:  1 eigenvalues not converged
     ethr =  2.98E-10,  avg # of iterations =  1.3

     total cpu time spent up to now is       12.4 secs

     total energy              =     -17.33754028 Ry
     estimated scf accuracy    <          4.0E-10 Ry

     iteration #  9     ecut=    80.00 Ry     beta= 0.15
     Davidson diagonalization with overlap
     ethr =  4.97E-12,  avg # of iterations =  4.8

     total cpu time spent up to now is       14.0 secs

     End of self-consistent calculation

          k =-0.0625 0.0625 0.0625 (  3467 PWs)   bands (ev):

    -7.7777   4.5575   5.2647   5.2647   6.9029   9.2561   9.2793   9.2793
    13.4251  15.3432  15.3432  16.9418  17.7905  17.7905  20.6206  30.3568
    30.6945  30.6945  32.4878  32.4878  33.3024  33.3024  33.7048  34.3480
    35.9896  35.9896  41.5941  43.8726  44.6131  44.6131  45.4509  45.4509

          k =-0.1875 0.1875-0.0625 (  3461 PWs)   bands (ev):

    -7.5398   2.8678   4.5249   5.1409   7.6063   9.4646   9.5090  10.4265
    14.1655  14.4998  14.9735  16.9280  18.5309  20.0164  22.4675  26.7028
    28.4913  28.9000  31.0738  31.7339  33.4793  33.9401  35.8599  36.1443
    38.3304  39.4946  40.2184  41.3191  41.4393  43.0170  43.1509  43.3889

          k =-0.3125 0.3125-0.1875 (  3445 PWs)   bands (ev):

    -6.9847   0.6801   3.9813   4.6825   7.3292  10.0120  10.2179  11.8666
    14.0983  14.5923  15.6253  18.1999  21.3791  22.8762  23.0585  24.9329
    25.1208  25.7591  31.6013  32.0595  33.9432  34.4544  35.0000  36.1019
    37.0162  37.7531  37.9227  39.5733  40.1339  41.9000  42.1001  42.6837

          k =-0.4375 0.4375-0.3125 (  3446 PWs)   bands (ev):

    -6.2901  -1.0389   3.7151   4.2587   7.0145  10.1001  10.1527  13.3098
    14.9122  15.5480  17.2152  18.9772  20.7729  21.5807  23.5087  24.9791
    26.4020  28.9852  30.6164  31.4362  32.3609  32.5592  33.3985  34.6494
    35.2047  36.6709  37.3433  37.9040  38.3202  39.9897  40.2974  41.0113

          k = 0.4375-0.4375 0.5625 (  3445 PWs)   bands (ev):

    -6.0072  -1.5855   3.7430   4.0395   6.9366   9.9048  10.2522  13.4324
    15.7683  17.2116  17.7615  18.4560  18.9067  20.1705  25.3465  27.4944
    27.5492  28.6811  29.0156  30.2207  32.0253  32.7549  32.8433  33.7872
    34.8392  35.6550  37.5326  37.5932  37.6385  39.8566  40.0224  40.7090

          k = 0.3125-0.3125 0.4375 (  3452 PWs)   bands (ev):

    -6.5131  -0.5562   4.0409   4.0860   7.1190   9.8702  10.4727  12.8287
    14.4984  15.4885  16.2601  19.5060  21.1884  22.3227  23.7138  23.8514
    25.0082  27.9987  31.7048  32.1732  32.2160  33.3995  34.1709  34.8892
    35.3505  37.1185  37.6702  38.4500  38.7169  40.0469  40.9314  41.1759

          k = 0.1875-0.1875 0.3125 (  3453 PWs)   bands (ev):

    -7.1984   1.3881   4.3992   4.5313   7.5025   9.5548  10.4409  11.2799
    13.8227  15.0364  15.1548  17.3934  20.5666  21.5467  24.4578  24.8138
    25.0366  27.0089  31.6299  31.6420  33.6562  34.4372  36.3669  36.4061
    37.2890  38.3413  39.4018  40.4113  40.5426  42.1710  42.6271  42.6506

          k = 0.0625-0.0625 0.1875 (  3461 PWs)   bands (ev):

    -7.6577   3.6349   4.8891   4.9846   7.6058   8.8807   9.8083   9.8783
    13.9885  14.2807  15.5340  17.0240  18.0280  18.7941  21.7646  28.6086
    28.6374  30.3058  31.3730  31.5503  33.1791  33.9059  35.0688  35.9094
    37.1576  38.3229  41.0566  42.4563  42.5550  43.0178  44.2880  44.6591

          k =-0.0625 0.3125 0.0625 (  3468 PWs)   bands (ev):

    -7.4208   2.6037   4.3480   4.3802   8.1410   8.6579  10.6507  10.7140
    13.1446  15.2046  15.9068  17.5522  18.5151  19.5440  23.7845  26.6352
    26.6866  29.0360  29.3986  31.4610  33.4910  34.2480  36.1862  38.2912
    38.6011  39.3017  39.9506  40.2888  40.7457  41.2572  42.3747  43.8330

          k =-0.1875 0.4375-0.0625 (  3457 PWs)   bands (ev):

    -6.9699   1.1189   3.3701   4.1111   8.2119   9.0498  11.0097  11.4321
    13.7238  16.0265  16.5516  18.2222  19.8828  21.9327  22.9890  24.9142
    26.4360  27.4681  29.1346  30.2070  32.7278  34.8157  36.3435  36.5617
    37.8987  38.2250  39.0271  39.7490  40.2879  40.9295  41.7942  41.8836

          k =-0.3125 0.5625-0.1875 (  3449 PWs)   bands (ev):

    -6.3026  -0.5431   2.7794   3.7078   8.0885   9.7129  11.2223  11.7760
    15.3000  16.2607  17.8883  18.8195  20.7302  22.0984  23.2985  25.3146
    25.6316  28.6111  29.6222  30.2574  30.6741  33.1045  33.5566  34.6164
    36.1010  36.6241  37.5237  38.7129  39.1934  40.3682  40.6164  42.0592

          k = 0.5625-0.3125 0.6875 (  3443 PWs)   bands (ev):

    -5.8177  -1.4733   2.4537   3.6128   8.0155   9.6804  11.2810  13.3544
    15.0597  16.7031  17.7068  18.6177  20.6012  22.3966  24.8748  26.2264
    27.1091  28.5135  29.0398  29.6879  30.9337  31.6386  33.1125  33.4654
    34.4030  35.1440  35.6330  37.8566  38.0280  40.3942  40.7688  42.2352

          k = 0.4375-0.1875 0.5625 (  3441 PWs)   bands (ev):

    -6.0927  -0.9656   2.4139   3.8938   8.1598   9.7517  11.1352  12.6407
    15.0329  15.8743  17.5335  19.2228  21.1755  22.3871  23.7179  24.8823
    27.3689  28.7541  29.3670  30.2936  30.9590  31.5717  33.2911  33.8192
    34.6209  35.9923  37.1800  38.5730  38.7626  40.5306  40.9470  42.0255

          k = 0.3125-0.0625 0.4375 (  3451 PWs)   bands (ev):

    -6.7664   0.5212   2.8150   4.3966   8.4270   9.5391  10.9370  11.2322
    13.7769  15.9910  17.0100  18.5658  20.6342  21.4016  23.8768  25.1387
    26.5879  27.3416  28.5072  30.1203  32.7725  33.9322  35.4446  36.1048
    36.6711  37.7275  39.0358  39.4043  40.3671  40.9920  41.5932  42.4040

          k = 0.1875 0.0625 0.3125 (  3465 PWs)   bands (ev):

    -7.3078   1.9910   3.9542   4.7578   8.0746   9.0467  10.3874  10.9904
    13.5087  15.1282  15.6028  17.4330  19.0679  21.0678  24.1289  24.7773
    26.7621  28.5736  29.9470  30.9944  32.7616  35.5395  36.6457  37.4686
    38.0840  39.0184  39.6210  39.9689  41.2264  41.4480  42.1387  42.6444

          k =-0.0625 0.5625 0.0625 (  3457 PWs)   bands (ev):

    -6.6344   0.5587   3.2015   3.3141   7.2775   8.6444  12.2850  12.7019
    14.0448  17.1220  17.8002  19.5006  20.3043  21.3591  22.9931  23.1626
    25.8004  26.0319  28.8460  32.2792  33.0987  34.1442  34.5743  34.7538
    35.1817  36.1090  38.2041  40.0135  41.9721  42.5262  42.7762  43.6954

          k =-0.1875 0.6875-0.0625 (  3446 PWs)   bands (ev):

    -6.0590  -0.5235   2.4165   2.9628   7.5313   8.6175  12.1204  13.6612
    15.7299  18.1251  18.4784  19.8294  20.7886  21.5696  22.5550  24.1007
    24.7496  26.2871  29.5600  30.3844  31.2913  32.3929  33.0528  33.8229
    34.5693  36.6261  37.8760  39.3515  39.9689  40.6256  41.8523  42.9165

          k = 0.6875-0.1875 0.8125 (  3445 PWs)   bands (ev):

    -5.5262  -1.3404   1.5658   2.9242   7.7193  10.2884  11.7162  13.4448
    15.3609  17.7196  18.9251  19.2536  21.2000  23.5084  24.7239  25.4412
    25.7474  26.3869  27.7971  29.1647  29.5421  31.2036  32.2257  34.0957
    34.8464  35.2035  35.9881  38.1565  38.7592  39.0122  40.7372  42.8639

          k = 0.5625-0.0625 0.6875 (  3446 PWs)   bands (ev):

    -5.5694  -1.2633   1.2219   3.2732   8.0743  11.1362  11.9926  13.3636
    13.5780  15.4486  19.2599  20.5873  22.0219  23.2844  24.1808  25.4761
    26.5382  27.5551  28.3080  29.4071  30.1819  30.9767  31.7289  33.3977
    33.9868  34.3869  35.5092  37.9555  39.1428  39.9319  40.6175  43.5222

          k = 0.4375 0.0625 0.5625 (  3447 PWs)   bands (ev):

    -6.1259  -0.5962   1.8302   3.8588   8.4972  10.1952  11.1908  12.1402
    14.2889  16.1428  18.2597  19.4024  20.4549  23.1416  24.0128  25.2992
    26.7094  27.6609  28.9506  30.2335  30.7836  32.1682  32.8096  33.5410
    34.4826  36.4391  37.4569  38.3808  39.8305  40.7506  41.4838  42.4330

          k = 0.3125 0.1875 0.4375 (  3450 PWs)   bands (ev):

    -6.6788   0.0226   3.4120   4.2885   7.7446   9.7294  10.7401  11.9083
    14.4068  15.2139  16.6437  18.9689  21.4935  22.0794  23.3852  24.2775
    25.3450  27.4511  30.1654  31.5203  32.7660  33.3766  34.7089  36.0967
    36.6448  37.4811  37.9964  38.7315  39.3635  39.9778  41.4459  42.6628

          k =-0.0625 0.8125 0.0625 (  3441 PWs)   bands (ev):

    -5.6297  -1.1841   2.4760   2.6688   6.8089   7.5374  14.5246  14.8538
    16.3106  18.7451  19.1344  19.9903  20.8572  22.3155  22.7190  23.3543
    24.0493  24.8776  28.1914  29.4846  29.6767  30.8487  33.0599  35.0556
    35.5037  36.3885  37.6544  39.4819  40.2294  41.5838  41.7788  43.7994

          k = 0.8125-0.0625 0.9375 (  3429 PWs)   bands (ev):

    -5.2613  -1.6433   1.9475   2.4459   7.2086   7.9890  14.2439  15.1094
    16.4240  18.1644  18.9487  20.2187  21.5793  22.7125  23.2417  24.5973
    25.0975  26.3237  26.9356  27.6433  28.8097  29.7541  31.8400  33.7689
    35.7885  37.9142  38.0243  39.1725  39.4534  40.8424  41.0227  42.3382

          k = 0.6875 0.0625 0.8125 (  3435 PWs)   bands (ev):

    -5.2946  -1.5296   1.2436   2.7735   7.5773  10.2063  12.7091  13.6942
    14.9102  16.7499  19.8966  20.8219  22.2718  22.9320  23.9306  24.7696
    25.7351  27.1040  27.7794  28.4293  29.5902  30.3510  31.3907  32.8238
    34.3572  35.0664  37.7417  38.2187  38.8326  39.9676  40.1328  42.6158

          k = 0.5625 0.1875 0.6875 (  3444 PWs)   bands (ev):

    -5.6529  -1.4035   1.7178   3.3862   8.1257  10.2379  11.9813  13.2070
    14.1982  16.4165  17.8018  19.8984  22.0396  23.1765  23.7088  26.1842
    27.0655  27.8418  28.3603  29.2887  31.1134  31.2096  31.7436  33.4597
    33.8994  34.6421  36.6861  37.4380  38.5767  38.9107  41.0139  42.9458

          k = 0.4375 0.3125 0.5625 (  3449 PWs)   bands (ev):

    -6.0436  -1.3561   3.1817   3.9516   7.5049   9.7437  10.6132  13.4369
    15.1032  16.5318  17.5382  18.7323  19.8285  21.7433  24.1981  25.9319
    27.9059  28.3409  30.0234  30.7286  31.3134  31.9450  32.5522  33.9665
    35.5610  35.8398  36.8270  37.4318  38.5199  38.9261  41.2637  41.8705

          k =-0.0625-0.9375 0.0625 (  3430 PWs)   bands (ev):

    -5.2776  -1.6888   2.3272   2.5353   6.7694   7.2240  15.5355  15.7027
    16.7949  18.7202  18.8633  19.8759  20.2537  21.6203  23.9972  25.1493
    25.3815  26.0353  26.3107  27.2255  27.6273  28.6775  33.6979  35.6373
    35.8928  37.3262  38.5064  39.5165  39.6734  41.5447  41.6238  42.8799

          k =-0.1875-0.8125-0.0625 (  3429 PWs)   bands (ev):

    -5.5861  -1.2093   2.1088   2.6171   7.3139   8.2132  13.1644  14.7239
    16.4132  18.1874  19.0785  20.0345  21.0418  21.8520  23.2904  24.0035
    25.3286  25.9426  27.2470  28.7866  30.8429  31.3075  31.9805  33.8966
    35.3634  36.0100  38.2476  38.9867  39.4345  40.8455  41.3200  42.5440

          k =-0.3125-0.6875-0.1875 (  3448 PWs)   bands (ev):

    -5.8958  -1.0017   2.1240   3.2329   7.9566  10.1799  11.1384  12.5354
    15.9205  17.5786  18.1098  18.9363  20.1449  22.6300  24.3954  25.4734
    26.4714  27.4433  27.7807  29.2722  31.5686  32.3780  32.8021  33.6689
    34.7045  35.5640  37.1046  38.1213  38.7653  39.2693  41.7130  42.4781

          k =-0.0625-0.6875 0.0625 (  3447 PWs)   bands (ev):

    -6.1305  -0.3835   2.7703   2.9316   6.9731   8.0507  13.3755  13.7890
    15.2185  17.9142  18.9131  20.8106  21.2320  21.7220  21.7852  22.6713
    24.2186  24.9246  30.5246  31.2432  31.9062  32.2464  33.0936  33.5299
    34.9650  35.8754  37.9899  39.6196  41.0822  41.9522  42.0932  44.0871

          k =-0.1875-0.5625-0.0625 (  3459 PWs)   bands (ev):

    -6.5428   0.2734   2.8459   3.4754   7.8542   9.0464  11.2719  12.5334
    14.6552  17.1094  17.5839  19.1521  20.9278  21.5041  22.8057  23.3775
    25.9573  27.7032  28.9086  30.5855  32.1278  33.1136  33.8324  35.8150
    36.4427  37.5198  37.8503  39.6638  40.1243  40.8489  42.1289  42.7103

          k =-0.0625-0.4375 0.0625 (  3459 PWs)   bands (ev):

    -7.0746   1.5673   3.7516   3.7981   7.7040   8.9849  11.4289  11.6420
    13.1294  16.4439  16.4770  18.3896  19.2704  20.3495  24.7455  24.8415
    26.2250  27.4938  27.5321  31.7860  33.8706  34.5601  35.6743  37.0079
    37.2300  37.9258  38.8924  40.8229  40.9937  41.5618  42.5426  43.5175

          k =-0.1875 0.1875 0.1875 (  3467 PWs)   bands (ev):

    -7.4247   2.1798   4.8490   4.8490   7.2346   9.8614   9.8614  10.6020
    14.5009  14.5009  14.6395  16.5982  20.1989  20.1989  23.0584  26.7990
    26.7990  26.8280  32.8571  32.8571  33.4549  33.4549  34.7054  36.0840
    38.4967  40.1180  40.1180  40.9348  40.9348  42.7089  42.7089  43.3228

          k =-0.3125 0.3125 0.0625 (  3449 PWs)   bands (ev):

    -7.0862   1.2483   3.3824   4.8365   8.0577   9.9373   9.9754  11.2750
    13.5689  15.1486  16.1632  17.9155  19.7563  22.7402  22.9101  25.0285
    26.7982  27.1753  29.3774  30.4594  33.8460  34.7493  36.1887  37.1161
    38.0086  38.4993  38.7954  39.1496  40.5821  41.2609  42.3352  43.1576

          k =-0.4375 0.4375-0.0625 (  3456 PWs)   bands (ev):

    -6.4771  -0.0702   2.2750   4.3389   8.2958  10.5014  10.7002  11.5057
    13.6822  16.2987  17.8097  18.9467  20.0179  22.0942  25.0090  25.2941
    26.1072  27.8901  28.3160  29.3455  32.7027  33.6036  34.3890  34.7333
    35.4705  35.6110  37.8466  39.9036  41.2530  41.6302  41.8490  42.4332

          k = 0.4375-0.4375 0.8125 (  3445 PWs)   bands (ev):

    -5.8625  -1.2638   2.0364   3.8022   7.9703  10.2626  11.1929  13.3896
    15.0678  15.2668  17.2065  20.2574  21.9461  22.2397  23.1345  26.1270
    28.0690  28.4499  29.3415  29.4859  29.7934  32.1622  32.5050  33.6354
    33.9040  35.1214  35.9205  38.0864  39.0481  40.3726  41.5628  42.1163

          k = 0.3125-0.3125 0.6875 (  3444 PWs)   bands (ev):

    -5.8509  -1.2913   2.3217   3.4846   7.7988  10.1827  11.5887  12.2063
    15.6761  17.5692  17.7570  18.7537  19.5335  23.5495  24.7171  25.3476
    26.9064  27.5814  28.5525  29.6784  30.6856  32.9345  33.3183  33.8519
    33.9380  35.1961  36.3746  37.1196  38.5308  40.1868  41.2932  42.0960

          k = 0.1875-0.1875 0.5625 (  3457 PWs)   bands (ev):

    -6.4595  -0.0762   2.9701   3.4809   7.8430   9.6082  11.1161  11.9275
    15.2784  16.7970  17.2174  19.3171  21.1031  22.0830  22.1773  23.7440
    26.7883  27.9860  29.0233  29.7948  31.2840  34.3506  34.7213  35.1077
    35.2437  36.8622  38.1719  38.5764  40.5829  41.3894  41.5194  41.5889

          k =-0.1875 0.4375 0.1875 (  3454 PWs)   bands (ev):

    -6.8705   0.6280   3.7747   3.9180   7.9507   9.3953  11.1436  11.2407
    14.1967  15.7720  16.0850  18.4537  21.1125  22.6026  22.9837  23.3396
    26.4617  27.3967  29.7743  30.2935  33.7262  34.0358  35.2454  36.6636
    37.5339  38.2774  38.5079  39.0794  39.2781  40.9840  42.1185  42.1964

          k =-0.3125 0.5625 0.0625 (  3455 PWs)   bands (ev):

    -6.3676  -0.1543   2.3272   3.7103   8.6832   9.4607  10.6236  12.3278
    14.6056  16.8551  18.0292  19.0695  20.2184  22.0788  23.4264  25.0758
    25.9121  28.0357  29.3394  30.0009  31.2707  32.1281  33.0617  35.0813
    36.5348  37.7199  38.2464  38.9399  39.5113  39.9439  40.8943  42.3883

          k = 0.5625-0.3125 0.9375 (  3449 PWs)   bands (ev):

    -5.7531  -1.0293   1.5234   3.1617   9.0053   9.9054  10.9501  13.4422
    14.6356  16.0057  18.9470  20.1104  21.3633  22.4311  24.2772  25.3985
    26.9013  28.1500  28.5373  28.8651  29.8579  31.6772  32.5363  33.3527
    33.9909  35.2312  36.8192  37.6220  38.5675  39.6291  41.2280  42.8036

          k = 0.4375-0.1875 0.8125 (  3437 PWs)   bands (ev):

    -5.5003  -1.4025   1.4941   2.8541   8.6679  10.0722  11.7621  13.3449
    14.1123  17.8153  18.6846  18.8994  22.4884  23.6130  24.2568  25.1292
    26.0538  27.5438  28.8462  29.1859  29.9595  30.5324  32.2997  32.9790
    33.7830  35.8289  36.3728  37.0053  37.6499  38.8909  40.4281  43.2175

          k = 0.3125-0.0625 0.6875 (  3442 PWs)   bands (ev):

    -5.9262  -0.7616   1.9534   3.0295   8.4793   9.5211  10.7743  13.5656
    15.4778  17.0772  18.9442  19.4916  20.7860  21.8389  23.5673  24.8759
    26.2266  27.8113  28.6491  29.1486  30.4312  31.9534  32.7801  34.0457
    35.0305  35.8569  37.0974  38.1725  39.5747  40.0044  41.2699  42.1648

          k =-0.1875 0.6875 0.1875 (  3447 PWs)   bands (ev):

    -6.0004  -0.7169   2.2735   3.1288   7.5088   9.4366  11.8217  12.7788
    16.3233  17.9651  18.3667  19.3785  19.7644  22.3444  23.0286  24.9576
    26.1212  26.3157  28.5506  29.3966  32.1748  32.4010  32.6631  34.2532
    35.0402  36.2290  36.9764  37.7439  40.4993  40.7866  41.4787  42.8032

          k = 0.6875-0.1875 1.0625 (  3438 PWs)   bands (ev):

    -5.5103  -1.2651   1.7098   2.4974   8.2612   9.2801  11.6022  14.4673
    15.4940  17.6326  19.3762  20.0436  21.4962  22.0355  23.3668  25.5535
    26.4252  26.7782  27.6488  28.1866  29.5423  31.7523  32.3204  33.6034
    34.3057  35.6734  36.5937  37.3870  38.7200  40.5907  41.4217  42.6948

          k = 0.5625-0.0625 0.9375 (  3427 PWs)   bands (ev):

    -5.2210  -1.5221   1.3943   2.0230   9.3621  10.3206  11.1645  12.2673
    16.2615  18.1696  18.8943  20.3698  22.1437  23.4549  23.9493  25.0990
    25.6357  26.7090  27.9059  29.0779  30.0941  31.2735  31.6100  33.0545
    33.3438  33.8806  35.2209  35.8253  39.4109  40.3799  42.2831  43.4861

          k = 0.4375 0.0625 0.8125 (  3435 PWs)   bands (ev):

    -5.4227  -1.3477   1.3815   2.4882   9.3883  10.0086  10.7705  13.4075
    15.0008  17.2457  19.6028  20.0225  21.8235  22.7349  23.8964  25.8552
    26.7317  27.3192  27.8242  28.4058  29.8866  30.7259  32.3110  33.3519
    34.2549  35.1572  35.7276  36.2616  37.1503  40.3857  42.0831  43.2822

          k =-0.1875-1.0625 0.1875 (  3436 PWs)   bands (ev):

    -5.2695  -1.6017   1.5094   2.7595   7.0756   8.9940  14.0466  14.4155
    15.5181  17.1049  19.6687  21.3235  21.5050  23.0231  23.2368  24.1044
    26.0620  26.0902  27.9183  27.9525  28.7999  30.0389  31.1234  33.3103
    35.7654  36.9002  37.3382  39.2715  39.7419  39.9494  40.9550  42.5625

          k =-0.3125-0.9375 0.0625 (  3425 PWs)   bands (ev):

    -5.2379  -1.5744   1.5961   2.2033   8.1419   9.1190  12.6289  13.7618
    16.2725  18.1144  18.9396  20.3392  22.3650  23.1628  23.8749  24.4580
    25.0394  26.0027  28.0239  29.1314  29.9283  30.2769  31.2241  32.0152
    34.2970  36.2283  36.7237  38.2767  38.8220  40.7384  41.3492  42.4178

          k =-0.1875-0.8125 0.1875 (  3439 PWs)   bands (ev):

    -5.5617  -1.2601   1.7704   2.8844   7.2277   9.1545  12.9123  13.6652
    16.4190  18.0335  18.8472  20.0841  20.0970  23.1039  24.1173  24.9643
    25.0875  26.3184  26.8635  29.7528  30.0753  30.2013  32.7758  34.2564
    35.2452  35.4773  37.4654  37.6989  39.9580  40.2747  41.2004  42.9800

          k =-0.3125 0.3125 0.3125 (  3440 PWs)   bands (ev):

    -6.7886   0.0232   4.4126   4.4126   6.8237  10.1605  10.1605  12.6689
    14.3047  15.0380  15.0380  19.0281  22.7754  22.7754  23.5871  23.5871
    23.7067  26.4249  33.4229  33.4229  33.5991  33.8300  33.8300  35.3412
    35.7216  35.7216  37.4814  40.5576  40.5576  40.6259  41.3664  41.3664

          k =-0.4375 0.4375 0.1875 (  3452 PWs)   bands (ev):

    -6.4102  -0.5292   2.9160   4.3150   7.7800  10.1263  10.4148  12.5832
    14.4067  15.3253  17.7650  18.6736  21.0160  22.7979  23.4783  24.1694
    26.1014  28.5152  30.0071  30.8300  31.6714  32.6776  34.5107  34.9428
    35.6763  36.5615  36.7306  39.1016  39.4890  40.7416  41.0017  41.5217

          k = 0.4375-0.4375 1.0625 (  3441 PWs)   bands (ev):

    -5.8460  -0.9783   1.4436   3.7425   8.0292  11.1745  11.7037  12.3738
    14.4071  14.9032  18.5738  20.0833  21.4629  23.6992  24.1658  25.1421
    26.2310  28.2064  29.5000  29.6093  30.5033  31.3920  32.1382  32.4712
    34.8710  35.1074  36.2243  36.9845  40.9168  41.0219  42.0016  42.1383

          k = 0.3125-0.3125 0.9375 (  3442 PWs)   bands (ev):

    -5.4084  -1.4305   1.1148   3.1817   7.5151  11.2992  12.8295  12.9708
    13.9793  15.5935  19.8111  20.8752  22.5425  22.8229  24.5965  24.8178
    26.2592  27.5717  27.9156  28.8947  29.5905  30.0833  32.0265  33.1981
    33.9929  35.6004  35.7452  36.7481  40.0451  40.3945  41.6028  42.0101

          k =-0.3125 0.5625 0.3125 (  3463 PWs)   bands (ev):

    -6.1857  -1.0035   3.2059   3.7615   7.6758   9.7227  10.9553  12.5113
    15.0754  16.7267  17.6251  18.9223  19.5967  22.6340  24.1936  24.5060
    26.3510  29.1081  30.3513  30.4966  30.8525  31.9933  33.9825  34.7938
    35.6907  36.0455  36.5303  37.4172  39.5591  40.1242  40.4331  41.4957

          k = 0.5625-0.3125 1.1875 (  3438 PWs)   bands (ev):

    -5.7697  -1.2576   1.9313   3.3181   8.6165   9.5708  11.7675  12.7713
    14.8618  16.9085  17.6424  19.4718  21.3026  22.8974  24.2386  25.8536
    26.9159  27.4474  28.9387  29.9464  30.4756  31.4888  32.5214  33.3465
    33.8579  35.3036  36.7909  37.6748  38.9903  39.4966  40.1434  41.5994

          k = 0.4375-0.1875 1.0625 (  3440 PWs)   bands (ev):

    -5.3459  -1.4410   1.2055   2.6158   8.5814  10.8850  11.6196  12.5951
    14.8714  16.9115  19.7858  20.2989  22.2213  22.8615  24.5679  25.6450
    25.8868  27.1994  27.5423  29.0022  29.8519  31.4531  32.2665  32.4065
    33.1087  34.2605  36.5464  37.3857  37.8481  39.4353  41.0026  43.4735

          k =-0.3125-1.1875 0.3125 (  3442 PWs)   bands (ev):

    -5.5700  -1.4166   1.5701   3.2854   7.6404  10.9513  12.1679  12.3212
    15.1390  16.5254  18.3470  19.9951  21.1351  24.1957  24.4425  25.7494
    26.0787  27.1017  27.8230  29.4361  30.1229  31.4072  31.8742  33.3613
    35.3185  35.4469  36.0710  36.4980  37.7946  40.2050  41.2753  42.7347

          k =-0.4375 0.4375 0.4375 (  3435 PWs)   bands (ev):

    -6.1437  -1.4160   4.1641   4.1641   6.5599  10.0830  10.0830  13.2324
    15.6401  16.9096  16.9096  19.0787  19.8263  19.8263  24.4484  26.8704
    26.8704  28.7893  30.6104  30.8401  30.8401  34.0881  34.0881  34.6945
    34.6945  34.8122  35.9685  39.2871  39.2871  39.7310  39.9649  39.9649

          k = 0.4375-0.4375 1.3125 (  3446 PWs)   bands (ev):

    -5.9112  -1.5212   2.8900   3.9090   7.6075   9.8246  10.6445  13.7680
    15.4726  16.5089  16.6950  19.3901  20.4074  20.9380  24.8092  26.9754
    27.7718  28.2309  29.6652  30.2117  30.8744  31.4600  32.8444  34.3443
    34.8554  35.4739  35.6840  36.6281  39.7815  40.0229  40.0828  41.8520

     highest occupied, lowest unoccupied level (ev):     5.2647    6.5599

!    total energy              =     -17.33754028 Ry
     estimated scf accuracy    <          3.2E-12 Ry

     The total energy is the sum of the following terms:
     one-electron contribution =       3.24972312 Ry
     hartree contribution      =       1.48392988 Ry
     xc contribution           =      -4.84744812 Ry
     ewald contribution        =     -17.22374516 Ry

     convergence has been achieved in   9 iterations

     Forces acting on atoms (cartesian axes, Ry/au):

     atom    1 type  1   force =     0.00000000    0.00000000   -0.00000000
     atom    2 type  2   force =     0.00000000    0.00000000    0.00000000

     Total force =     0.000000     Total SCF correction =     0.000000


     Computing stress (Cartesian axis) and pressure

          total   stress  (Ry/bohr**3)                   (kbar)     P=       -0.03
  -0.00000021   0.00000000  -0.00000000           -0.03        0.00       -0.00
   0.00000000  -0.00000021  -0.00000000            0.00       -0.03       -0.00
  -0.00000000  -0.00000000  -0.00000021           -0.00       -0.00       -0.03


     Writing all to output data dir ./work/GaAs.save/
 
     init_run     :      0.44s CPU      0.49s WALL (       1 calls)
     electrons    :     13.07s CPU     13.48s WALL (       1 calls)
     forces       :      0.04s CPU      0.04s WALL (       1 calls)
     stress       :      0.12s CPU      0.12s WALL (       1 calls)

     Called by init_run:
     wfcinit      :      0.40s CPU      0.43s WALL (       1 calls)
     potinit      :      0.01s CPU      0.01s WALL (       1 calls)
     hinit0       :      0.02s CPU      0.04s WALL (       1 calls)

     Called by electrons:
     c_bands      :     11.52s CPU     11.86s WALL (       9 calls)
     sum_band     :      1.54s CPU      1.61s WALL (       9 calls)
     v_of_rho     :      0.00s CPU      0.00s WALL (      10 calls)
     mix_rho      :      0.00s CPU      0.00s WALL (       9 calls)

     Called by c_bands:
     init_us_2    :      0.08s CPU      0.08s WALL (    1260 calls)
     init_us_2:cp :      0.07s CPU      0.07s WALL (    1260 calls)
     cegterg      :     11.28s CPU     11.62s WALL (     540 calls)

     Called by *egterg:
     cdiaghg      :      2.84s CPU      2.89s WALL (    2552 calls)
     h_psi        :      8.03s CPU      8.31s WALL (    2612 calls)
     g_psi        :      0.03s CPU      0.03s WALL (    2012 calls)

     Called by h_psi:
     h_psi:calbec :      0.14s CPU      0.15s WALL (    2612 calls)
     vloc_psi     :      7.77s CPU      8.04s WALL (    2612 calls)
     add_vuspsi   :      0.09s CPU      0.09s WALL (    2612 calls)

     General routines
     calbec       :      0.16s CPU      0.17s WALL (    2912 calls)
     fft          :      0.01s CPU      0.03s WALL (      34 calls)
     ffts         :      0.00s CPU      0.00s WALL (       9 calls)
     fftw         :      8.49s CPU      8.80s WALL (  109534 calls)
 
     Parallel routines
 
     PWSCF        :     13.89s CPU     14.47s WALL

 
   This run was terminated on:  16:46:10  30Jan2023            

=------------------------------------------------------------------------------=
   JOB DONE.
=------------------------------------------------------------------------------=
