
     Program PWSCF v.7.1 starts on 30Jan2023 at 16:20:37 

     This program is part of the open-source Quantum ESPRESSO suite
     for quantum simulation of materials; please cite
         "P. Giannozzi et al., J. Phys.:Condens. Matter 21 395502 (2009);
         "P. Giannozzi et al., J. Phys.:Condens. Matter 29 465901 (2017);
         "P. Giannozzi et al., J. Chem. Phys. 152 154105 (2020);
          URL http://www.quantum-espresso.org", 
     in publications or presentations arising from this work. More details at
     http://www.quantum-espresso.org/quote

     Parallel version (MPI), running on    20 processors

     MPI processes distributed on     1 nodes
     114954 MiB available memory on the printing compute node when the environment starts
 
     Waiting for input...
     Reading input from standard input

     Current dimensions of program PWSCF are:
     Max number of different atomic species (ntypx) = 10
     Max number of k-points (npk) =  40000
     Max angular momentum in pseudopotentials (lmaxx) =  4
 
     R & G space division:  proc/nbgrp/npool/nimage =      20
     Subspace diagonalization in iterative solution of the eigenvalue problem:
     a serial algorithm will be used

 
     Parallelization info
     --------------------
     sticks:   dense  smooth     PW     G-vecs:    dense   smooth      PW
     Min          63      63     18                 1478     1478     244
     Max          64      64     19                 1482     1482     247
     Sum        1261    1261    379                29603    29603    4909
 
     Using Slab Decomposition
 


     bravais-lattice index     =            2
     lattice parameter (alat)  =      10.6837  a.u.
     unit-cell volume          =     304.8664 (a.u.)^3
     number of atoms/cell      =            2
     number of atomic types    =            2
     number of electrons       =         8.00
     number of Kohn-Sham states=            4
     kinetic-energy cutoff     =      80.0000  Ry
     charge density cutoff     =     320.0000  Ry
     scf convergence threshold =      1.0E-10
     mixing beta               =       0.1500
     number of iterations used =            8  plain     mixing
     energy convergence thresh.=      1.0E-06
     force convergence thresh. =      1.0E-05
     press convergence thresh. =      5.0E-02
     Exchange-correlation= SLA-PZ-NOGX-NOGC
                           (   1   1   0   0   0   0   0)
     nstep                     =          100


     celldm(1)=  10.683737  celldm(2)=   0.000000  celldm(3)=   0.000000
     celldm(4)=   0.000000  celldm(5)=   0.000000  celldm(6)=   0.000000

     crystal axes: (cart. coord. in units of alat)
               a(1) = (  -0.500000   0.000000   0.500000 )  
               a(2) = (   0.000000   0.500000   0.500000 )  
               a(3) = (  -0.500000   0.500000   0.000000 )  

     reciprocal axes: (cart. coord. in units 2 pi/alat)
               b(1) = ( -1.000000 -1.000000  1.000000 )  
               b(2) = (  1.000000  1.000000  1.000000 )  
               b(3) = ( -1.000000  1.000000 -1.000000 )  


     PseudoPot. # 1 for Ga read from file:
     ../../pseudo/Ga.pz-hgh.upf
     MD5 check sum: 9a76aebca20297769771d7f9bb2cf22c
     Pseudo is Norm-conserving, Zval =  3.0
     Generated in analytical, separable form
     Using radial grid of 1205 points,  6 beta functions with: 
                l(1) =   0
                l(2) =   0
                l(3) =   0
                l(4) =   1
                l(5) =   1
                l(6) =   2

     PseudoPot. # 2 for As read from file:
     ../../pseudo/As.pz-hgh.upf
     MD5 check sum: 8bce9ee3be4f31c0b3268c76e624ca74
     Pseudo is Norm-conserving, Zval =  5.0
     Generated in analytical, separable form
     Using radial grid of 1209 points,  6 beta functions with: 
                l(1) =   0
                l(2) =   0
                l(3) =   0
                l(4) =   1
                l(5) =   1
                l(6) =   2

     atomic species   valence    mass     pseudopotential
        Ga             3.00    68.92600     Ga( 1.00)
        As             5.00    74.92200     As( 1.00)

     24 Sym. Ops. (no inversion) found



   Cartesian axes

     site n.     atom                  positions (alat units)
         1           Ga  tau(   1) = (   0.0000000   0.0000000   0.0000000  )
         2           As  tau(   2) = (  -0.2500000   0.2500000   0.2500000  )

     number of k points=    60
                       cart. coord. in units 2pi/alat
        k(    1) = (  -0.0625000   0.0625000   0.0625000), wk =   0.0078125
        k(    2) = (  -0.1875000   0.1875000  -0.0625000), wk =   0.0234375
        k(    3) = (  -0.3125000   0.3125000  -0.1875000), wk =   0.0234375
        k(    4) = (  -0.4375000   0.4375000  -0.3125000), wk =   0.0234375
        k(    5) = (   0.4375000  -0.4375000   0.5625000), wk =   0.0234375
        k(    6) = (   0.3125000  -0.3125000   0.4375000), wk =   0.0234375
        k(    7) = (   0.1875000  -0.1875000   0.3125000), wk =   0.0234375
        k(    8) = (   0.0625000  -0.0625000   0.1875000), wk =   0.0234375
        k(    9) = (  -0.0625000   0.3125000   0.0625000), wk =   0.0234375
        k(   10) = (  -0.1875000   0.4375000  -0.0625000), wk =   0.0468750
        k(   11) = (  -0.3125000   0.5625000  -0.1875000), wk =   0.0468750
        k(   12) = (   0.5625000  -0.3125000   0.6875000), wk =   0.0468750
        k(   13) = (   0.4375000  -0.1875000   0.5625000), wk =   0.0468750
        k(   14) = (   0.3125000  -0.0625000   0.4375000), wk =   0.0468750
        k(   15) = (   0.1875000   0.0625000   0.3125000), wk =   0.0468750
        k(   16) = (  -0.0625000   0.5625000   0.0625000), wk =   0.0234375
        k(   17) = (  -0.1875000   0.6875000  -0.0625000), wk =   0.0468750
        k(   18) = (   0.6875000  -0.1875000   0.8125000), wk =   0.0468750
        k(   19) = (   0.5625000  -0.0625000   0.6875000), wk =   0.0468750
        k(   20) = (   0.4375000   0.0625000   0.5625000), wk =   0.0468750
        k(   21) = (   0.3125000   0.1875000   0.4375000), wk =   0.0468750
        k(   22) = (  -0.0625000   0.8125000   0.0625000), wk =   0.0234375
        k(   23) = (   0.8125000  -0.0625000   0.9375000), wk =   0.0468750
        k(   24) = (   0.6875000   0.0625000   0.8125000), wk =   0.0468750
        k(   25) = (   0.5625000   0.1875000   0.6875000), wk =   0.0468750
        k(   26) = (   0.4375000   0.3125000   0.5625000), wk =   0.0468750
        k(   27) = (  -0.0625000  -0.9375000   0.0625000), wk =   0.0234375
        k(   28) = (  -0.1875000  -0.8125000  -0.0625000), wk =   0.0468750
        k(   29) = (  -0.3125000  -0.6875000  -0.1875000), wk =   0.0468750
        k(   30) = (  -0.0625000  -0.6875000   0.0625000), wk =   0.0234375
        k(   31) = (  -0.1875000  -0.5625000  -0.0625000), wk =   0.0468750
        k(   32) = (  -0.0625000  -0.4375000   0.0625000), wk =   0.0234375
        k(   33) = (  -0.1875000   0.1875000   0.1875000), wk =   0.0078125
        k(   34) = (  -0.3125000   0.3125000   0.0625000), wk =   0.0234375
        k(   35) = (  -0.4375000   0.4375000  -0.0625000), wk =   0.0234375
        k(   36) = (   0.4375000  -0.4375000   0.8125000), wk =   0.0234375
        k(   37) = (   0.3125000  -0.3125000   0.6875000), wk =   0.0234375
        k(   38) = (   0.1875000  -0.1875000   0.5625000), wk =   0.0234375
        k(   39) = (  -0.1875000   0.4375000   0.1875000), wk =   0.0234375
        k(   40) = (  -0.3125000   0.5625000   0.0625000), wk =   0.0468750
        k(   41) = (   0.5625000  -0.3125000   0.9375000), wk =   0.0468750
        k(   42) = (   0.4375000  -0.1875000   0.8125000), wk =   0.0468750
        k(   43) = (   0.3125000  -0.0625000   0.6875000), wk =   0.0468750
        k(   44) = (  -0.1875000   0.6875000   0.1875000), wk =   0.0234375
        k(   45) = (   0.6875000  -0.1875000   1.0625000), wk =   0.0468750
        k(   46) = (   0.5625000  -0.0625000   0.9375000), wk =   0.0468750
        k(   47) = (   0.4375000   0.0625000   0.8125000), wk =   0.0468750
        k(   48) = (  -0.1875000  -1.0625000   0.1875000), wk =   0.0234375
        k(   49) = (  -0.3125000  -0.9375000   0.0625000), wk =   0.0468750
        k(   50) = (  -0.1875000  -0.8125000   0.1875000), wk =   0.0234375
        k(   51) = (  -0.3125000   0.3125000   0.3125000), wk =   0.0078125
        k(   52) = (  -0.4375000   0.4375000   0.1875000), wk =   0.0234375
        k(   53) = (   0.4375000  -0.4375000   1.0625000), wk =   0.0234375
        k(   54) = (   0.3125000  -0.3125000   0.9375000), wk =   0.0234375
        k(   55) = (  -0.3125000   0.5625000   0.3125000), wk =   0.0234375
        k(   56) = (   0.5625000  -0.3125000   1.1875000), wk =   0.0468750
        k(   57) = (   0.4375000  -0.1875000   1.0625000), wk =   0.0468750
        k(   58) = (  -0.3125000  -1.1875000   0.3125000), wk =   0.0234375
        k(   59) = (  -0.4375000   0.4375000   0.4375000), wk =   0.0078125
        k(   60) = (   0.4375000  -0.4375000   1.3125000), wk =   0.0234375

     Dense  grid:    29603 G-vectors     FFT dimensions: (  45,  45,  45)

     Estimated max dynamical RAM per process >      13.44 MB

     Estimated total dynamical RAM >     268.79 MB

     Initial potential from superposition of free atoms

     starting charge       6.0000, renormalised to       8.0000
     Starting wfcs are   18 randomized atomic wfcs

     total cpu time spent up to now is        0.5 secs

     Self-consistent Calculation

     iteration #  1     ecut=    80.00 Ry     beta= 0.15
     Davidson diagonalization with overlap
     ethr =  1.00E-02,  avg # of iterations =  1.1

     total cpu time spent up to now is        0.6 secs

     total energy              =     -17.35911196 Ry
     estimated scf accuracy    <       0.13284681 Ry

     iteration #  2     ecut=    80.00 Ry     beta= 0.15
     Davidson diagonalization with overlap
     ethr =  1.66E-03,  avg # of iterations =  1.0

     total cpu time spent up to now is        0.8 secs

     total energy              =     -17.31743808 Ry
     estimated scf accuracy    <       0.08751732 Ry

     iteration #  3     ecut=    80.00 Ry     beta= 0.15
     Davidson diagonalization with overlap
     ethr =  1.09E-03,  avg # of iterations =  2.0

     total cpu time spent up to now is        1.0 secs

     total energy              =     -17.33920546 Ry
     estimated scf accuracy    <       0.01046215 Ry

     iteration #  4     ecut=    80.00 Ry     beta= 0.15
     Davidson diagonalization with overlap
     ethr =  1.31E-04,  avg # of iterations =  1.3

     total cpu time spent up to now is        1.1 secs

     total energy              =     -17.33771019 Ry
     estimated scf accuracy    <       0.01408944 Ry

     iteration #  5     ecut=    80.00 Ry     beta= 0.15
     Davidson diagonalization with overlap
     ethr =  1.31E-04,  avg # of iterations =  1.0

     negative rho (up, down):  6.557E-08 0.000E+00

     total cpu time spent up to now is        1.3 secs

     total energy              =     -17.33449943 Ry
     estimated scf accuracy    <       0.00980548 Ry

     iteration #  6     ecut=    80.00 Ry     beta= 0.15
     Davidson diagonalization with overlap
     ethr =  1.23E-04,  avg # of iterations =  1.0

     negative rho (up, down):  4.994E-08 0.000E+00

     total cpu time spent up to now is        1.5 secs

     total energy              =     -17.33493883 Ry
     estimated scf accuracy    <       0.00221051 Ry

     iteration #  7     ecut=    80.00 Ry     beta= 0.15
     Davidson diagonalization with overlap
     ethr =  2.76E-05,  avg # of iterations =  1.0

     negative rho (up, down):  7.689E-08 0.000E+00

     total cpu time spent up to now is        1.6 secs

     total energy              =     -17.33482811 Ry
     estimated scf accuracy    <       0.00205389 Ry

     iteration #  8     ecut=    80.00 Ry     beta= 0.15
     Davidson diagonalization with overlap
     ethr =  2.57E-05,  avg # of iterations =  1.0

     negative rho (up, down):  4.258E-08 0.000E+00

     total cpu time spent up to now is        1.8 secs

     total energy              =     -17.33470856 Ry
     estimated scf accuracy    <       0.00147850 Ry

     iteration #  9     ecut=    80.00 Ry     beta= 0.15
     Davidson diagonalization with overlap
     ethr =  1.85E-05,  avg # of iterations =  1.0

     total cpu time spent up to now is        1.9 secs

     total energy              =     -17.33438765 Ry
     estimated scf accuracy    <       0.00108790 Ry

     iteration # 10     ecut=    80.00 Ry     beta= 0.15
     Davidson diagonalization with overlap
     ethr =  1.36E-05,  avg # of iterations =  1.2

     total cpu time spent up to now is        2.1 secs

     total energy              =     -17.33436795 Ry
     estimated scf accuracy    <       0.00027994 Ry

     iteration # 11     ecut=    80.00 Ry     beta= 0.15
     Davidson diagonalization with overlap
     ethr =  3.50E-06,  avg # of iterations =  1.9

     total cpu time spent up to now is        2.2 secs

     total energy              =     -17.33443116 Ry
     estimated scf accuracy    <       0.00008285 Ry

     iteration # 12     ecut=    80.00 Ry     beta= 0.15
     Davidson diagonalization with overlap
     ethr =  1.04E-06,  avg # of iterations =  1.0

     total cpu time spent up to now is        2.4 secs

     total energy              =     -17.33439238 Ry
     estimated scf accuracy    <       0.00008659 Ry

     iteration # 13     ecut=    80.00 Ry     beta= 0.15
     Davidson diagonalization with overlap
     ethr =  1.04E-06,  avg # of iterations =  2.0

     total cpu time spent up to now is        2.6 secs

     total energy              =     -17.33440615 Ry
     estimated scf accuracy    <       0.00000631 Ry

     iteration # 14     ecut=    80.00 Ry     beta= 0.15
     Davidson diagonalization with overlap
     ethr =  7.89E-08,  avg # of iterations =  1.7

     total cpu time spent up to now is        2.7 secs

     total energy              =     -17.33440659 Ry
     estimated scf accuracy    <       0.00000651 Ry

     iteration # 15     ecut=    80.00 Ry     beta= 0.15
     Davidson diagonalization with overlap
     ethr =  7.89E-08,  avg # of iterations =  1.4

     total cpu time spent up to now is        2.9 secs

     total energy              =     -17.33440915 Ry
     estimated scf accuracy    <       0.00001216 Ry

     iteration # 16     ecut=    80.00 Ry     beta= 0.15
     Davidson diagonalization with overlap
     ethr =  7.89E-08,  avg # of iterations =  2.0

     total cpu time spent up to now is        3.1 secs

     total energy              =     -17.33441175 Ry
     estimated scf accuracy    <       0.00000248 Ry

     iteration # 17     ecut=    80.00 Ry     beta= 0.15
     Davidson diagonalization with overlap
     ethr =  3.10E-08,  avg # of iterations =  2.0

     total cpu time spent up to now is        3.3 secs

     total energy              =     -17.33441188 Ry
     estimated scf accuracy    <       0.00000569 Ry

     iteration # 18     ecut=    80.00 Ry     beta= 0.15
     Davidson diagonalization with overlap
     ethr =  3.10E-08,  avg # of iterations =  1.0

     total cpu time spent up to now is        3.4 secs

     total energy              =     -17.33441128 Ry
     estimated scf accuracy    <       0.00000545 Ry

     iteration # 19     ecut=    80.00 Ry     beta= 0.15
     Davidson diagonalization with overlap
     ethr =  3.10E-08,  avg # of iterations =  1.0

     total cpu time spent up to now is        3.6 secs

     total energy              =     -17.33441125 Ry
     estimated scf accuracy    <       0.00000410 Ry

     iteration # 20     ecut=    80.00 Ry     beta= 0.15
     Davidson diagonalization with overlap
     ethr =  3.10E-08,  avg # of iterations =  1.0

     total cpu time spent up to now is        3.7 secs

     total energy              =     -17.33441130 Ry
     estimated scf accuracy    <       0.00000389 Ry

     iteration # 21     ecut=    80.00 Ry     beta= 0.15
     Davidson diagonalization with overlap
     ethr =  3.10E-08,  avg # of iterations =  1.0

     total cpu time spent up to now is        3.9 secs

     total energy              =     -17.33441127 Ry
     estimated scf accuracy    <       0.00000397 Ry

     iteration # 22     ecut=    80.00 Ry     beta= 0.15
     Davidson diagonalization with overlap
     ethr =  3.10E-08,  avg # of iterations =  1.0

     total cpu time spent up to now is        4.0 secs

     total energy              =     -17.33440891 Ry
     estimated scf accuracy    <       0.00000387 Ry

     iteration # 23     ecut=    80.00 Ry     beta= 0.15
     Davidson diagonalization with overlap
     ethr =  3.10E-08,  avg # of iterations =  2.2

     total cpu time spent up to now is        4.2 secs

     total energy              =     -17.33441019 Ry
     estimated scf accuracy    <       0.00000029 Ry

     iteration # 24     ecut=    80.00 Ry     beta= 0.15
     Davidson diagonalization with overlap
     ethr =  3.67E-09,  avg # of iterations =  3.3

     total cpu time spent up to now is        4.5 secs

     total energy              =     -17.33440934 Ry
     estimated scf accuracy    <       0.00000271 Ry

     iteration # 25     ecut=    80.00 Ry     beta= 0.15
     Davidson diagonalization with overlap
     ethr =  3.67E-09,  avg # of iterations =  3.4

     total cpu time spent up to now is        4.8 secs

     total energy              =     -17.33440994 Ry
     estimated scf accuracy    <       0.00000005 Ry

     iteration # 26     ecut=    80.00 Ry     beta= 0.15
     Davidson diagonalization with overlap
     ethr =  6.30E-10,  avg # of iterations =  1.6

     total cpu time spent up to now is        4.9 secs

     total energy              =     -17.33440994 Ry
     estimated scf accuracy    <       0.00000001 Ry

     iteration # 27     ecut=    80.00 Ry     beta= 0.15
     Davidson diagonalization with overlap
     ethr =  1.74E-10,  avg # of iterations =  2.0

     total cpu time spent up to now is        5.1 secs

     total energy              =     -17.33440994 Ry
     estimated scf accuracy    <          3.8E-10 Ry

     iteration # 28     ecut=    80.00 Ry     beta= 0.15
     Davidson diagonalization with overlap
     ethr =  4.72E-12,  avg # of iterations =  2.4

     total cpu time spent up to now is        5.3 secs

     total energy              =     -17.33440994 Ry
     estimated scf accuracy    <          2.0E-10 Ry

     iteration # 29     ecut=    80.00 Ry     beta= 0.15
     Davidson diagonalization with overlap
     ethr =  2.55E-12,  avg # of iterations =  2.0

     total cpu time spent up to now is        5.5 secs

     End of self-consistent calculation

          k =-0.0625 0.0625 0.0625 (  3707 PWs)   bands (ev):

    -7.9957   3.7717   4.5768   4.5768

          k =-0.1875 0.1875-0.0625 (  3688 PWs)   bands (ev):

    -7.7767   2.1619   3.9048   4.4609

          k =-0.3125 0.3125-0.1875 (  3690 PWs)   bands (ev):

    -7.2698   0.1397   3.3904   4.0405

          k =-0.4375 0.4375-0.3125 (  3699 PWs)   bands (ev):

    -6.6486  -1.4337   3.1334   3.6497

          k = 0.4375-0.4375 0.5625 (  3685 PWs)   bands (ev):

    -6.4027  -1.9251   3.1537   3.4487

          k = 0.3125-0.3125 0.4375 (  3690 PWs)   bands (ev):

    -6.8457  -0.9949   3.4300   3.4951

          k = 0.1875-0.1875 0.3125 (  3682 PWs)   bands (ev):

    -7.4640   0.7929   3.7879   3.8889

          k = 0.0625-0.0625 0.1875 (  3691 PWs)   bands (ev):

    -7.8850   2.8713   4.2388   4.3150

          k =-0.0625 0.3125 0.0625 (  3680 PWs)   bands (ev):

    -7.6671   1.8797   3.7449   3.7638

          k =-0.1875 0.4375-0.0625 (  3679 PWs)   bands (ev):

    -7.2550   0.5008   2.8389   3.5135

          k =-0.3125 0.5625-0.1875 (  3677 PWs)   bands (ev):

    -6.6551  -1.0094   2.2646   3.1468

          k = 0.5625-0.3125 0.6875 (  3684 PWs)   bands (ev):

    -6.2325  -1.8404   1.9509   3.0615

          k = 0.4375-0.1875 0.5625 (  3684 PWs)   bands (ev):

    -6.4708  -1.3885   1.9251   3.3175

          k = 0.3125-0.0625 0.4375 (  3687 PWs)   bands (ev):

    -7.0710  -0.0431   2.3239   3.7764

          k = 0.1875 0.0625 0.3125 (  3682 PWs)   bands (ev):

    -7.5637   1.3305   3.3795   4.1054

          k =-0.0625 0.5625 0.0625 (  3657 PWs)   bands (ev):

    -6.9492  -0.0478   2.6841   2.7892

          k =-0.1875 0.6875-0.0625 (  3679 PWs)   bands (ev):

    -6.4337  -1.0390   1.9586   2.4652

          k = 0.6875-0.1875 0.8125 (  3684 PWs)   bands (ev):

    -5.9712  -1.7641   1.1687   2.4290

          k = 0.5625-0.0625 0.6875 (  3681 PWs)   bands (ev):

    -6.0105  -1.6935   0.8555   2.7496

          k = 0.4375 0.0625 0.5625 (  3684 PWs)   bands (ev):

    -6.4975  -1.0799   1.4107   3.2864

          k = 0.3125 0.1875 0.4375 (  3682 PWs)   bands (ev):

    -6.9929  -0.4758   2.8557   3.6756

          k =-0.0625 0.8125 0.0625 (  3682 PWs)   bands (ev):

    -6.0545  -1.6402   2.0137   2.1888

          k = 0.8125-0.0625 0.9375 (  3688 PWs)   bands (ev):

    -5.7404  -2.0447   1.5307   1.9862

          k = 0.6875 0.0625 0.8125 (  3692 PWs)   bands (ev):

    -5.7723  -1.9411   0.8855   2.2890

          k = 0.5625 0.1875 0.6875 (  3678 PWs)   bands (ev):

    -6.0858  -1.7961   1.2882   2.8538

          k = 0.4375 0.3125 0.5625 (  3696 PWs)   bands (ev):

    -6.4315  -1.7252   2.6263   3.3692

          k =-0.0625-0.9375 0.0625 (  3679 PWs)   bands (ev):

    -5.7530  -2.0845   1.8756   2.0643

          k =-0.1875-0.8125-0.0625 (  3679 PWs)   bands (ev):

    -6.0181  -1.6618   1.6775   2.1457

          k =-0.3125-0.6875-0.1875 (  3681 PWs)   bands (ev):

    -6.2941  -1.4440   1.6664   2.7138

          k =-0.0625-0.6875 0.0625 (  3678 PWs)   bands (ev):

    -6.4959  -0.9166   2.2862   2.4335

          k =-0.1875-0.5625-0.0625 (  3672 PWs)   bands (ev):

    -6.8674  -0.2980   2.3537   2.9343

          k =-0.0625-0.4375 0.0625 (  3667 PWs)   bands (ev):

    -7.3499   0.8964   3.1894   3.2379

          k =-0.1875 0.1875 0.1875 (  3689 PWs)   bands (ev):

    -7.6710   1.5359   4.1978   4.1978

          k =-0.3125 0.3125 0.0625 (  3684 PWs)   bands (ev):

    -7.3615   0.6407   2.8506   4.1807

          k =-0.4375 0.4375-0.0625 (  3686 PWs)   bands (ev):

    -6.8108  -0.5900   1.8222   3.7254

          k = 0.4375-0.4375 0.8125 (  3685 PWs)   bands (ev):

    -6.2694  -1.6606   1.5770   3.2329

          k = 0.3125-0.3125 0.6875 (  3684 PWs)   bands (ev):

    -6.2585  -1.6863   1.8352   2.9420

          k = 0.1875-0.1875 0.5625 (  3674 PWs)   bands (ev):

    -6.7937  -0.5978   2.4469   2.9417

          k =-0.1875 0.4375 0.1875 (  3683 PWs)   bands (ev):

    -7.1653   0.0718   3.1827   3.3456

          k =-0.3125 0.5625 0.0625 (  3687 PWs)   bands (ev):

    -6.7115  -0.6798   1.8717   3.1497

          k = 0.5625-0.3125 0.9375 (  3682 PWs)   bands (ev):

    -6.1688  -1.4838   1.1305   2.6507

          k = 0.4375-0.1875 0.8125 (  3683 PWs)   bands (ev):

    -5.9511  -1.8120   1.0944   2.3703

          k = 0.3125-0.0625 0.6875 (  3683 PWs)   bands (ev):

    -6.3184  -1.2476   1.5280   2.5296

          k =-0.1875 0.6875 0.1875 (  3685 PWs)   bands (ev):

    -6.3835  -1.2015   1.8173   2.6153

          k = 0.6875-0.1875 1.0625 (  3687 PWs)   bands (ev):

    -5.9549  -1.7089   1.3084   2.0426

          k = 0.5625-0.0625 0.9375 (  3688 PWs)   bands (ev):

    -5.7091  -1.9395   1.0248   1.6093

          k = 0.4375 0.0625 0.8125 (  3692 PWs)   bands (ev):

    -5.8818  -1.7793   1.0059   2.0361

          k =-0.1875-1.0625 0.1875 (  3683 PWs)   bands (ev):

    -5.7489  -2.0068   1.1306   2.2720

          k =-0.3125-0.9375 0.0625 (  3691 PWs)   bands (ev):

    -5.7222  -1.9847   1.2098   1.7701

          k =-0.1875-0.8125 0.1875 (  3682 PWs)   bands (ev):

    -5.9990  -1.7017   1.3651   2.3881

          k =-0.3125 0.3125 0.3125 (  3687 PWs)   bands (ev):

    -7.0929  -0.4593   3.7941   3.7941

          k =-0.4375 0.4375 0.1875 (  3687 PWs)   bands (ev):

    -6.7527  -0.9830   2.3930   3.7025

          k = 0.4375-0.4375 1.0625 (  3691 PWs)   bands (ev):

    -6.2516  -1.4296   1.0551   3.1786

          k = 0.3125-0.3125 0.9375 (  3682 PWs)   bands (ev):

    -5.8714  -1.8470   0.7625   2.6622

          k =-0.3125 0.5625 0.3125 (  3699 PWs)   bands (ev):

    -6.5542  -1.4121   2.6457   3.1971

          k = 0.5625-0.3125 1.1875 (  3670 PWs)   bands (ev):

    -6.1864  -1.6654   1.4824   2.7941

          k = 0.4375-0.1875 1.0625 (  3690 PWs)   bands (ev):

    -5.8169  -1.8612   0.8472   2.1501

          k =-0.3125-1.1875 0.3125 (  3681 PWs)   bands (ev):

    -6.0124  -1.8170   1.1611   2.7581

          k =-0.4375 0.4375 0.4375 (  3687 PWs)   bands (ev):

    -6.5218  -1.7711   3.5625   3.5625

          k = 0.4375-0.4375 1.3125 (  3685 PWs)   bands (ev):

    -6.3163  -1.8747   2.3548   3.3301

     highest occupied level (ev):     4.5768

!    total energy              =     -17.33440994 Ry
     estimated scf accuracy    <          4.0E-12 Ry

     The total energy is the sum of the following terms:
     one-electron contribution =       2.72496876 Ry
     hartree contribution      =       1.56702269 Ry
     xc contribution           =      -4.78366235 Ry
     ewald contribution        =     -16.84273905 Ry

     convergence has been achieved in  29 iterations


     Computing stress (Cartesian axis) and pressure

          total   stress  (Ry/bohr**3)                   (kbar)     P=      -43.80
  -0.00029772   0.00000000   0.00000000          -43.80        0.00        0.00
   0.00000000  -0.00029772   0.00000000            0.00      -43.80        0.00
   0.00000000   0.00000000  -0.00029772            0.00        0.00      -43.80


     BFGS Geometry Optimization
     Energy error            =      0.0E+00 Ry
     Gradient error          =      0.0E+00 Ry/Bohr
     Cell gradient error     =      4.4E+01 kbar

     number of scf cycles    =   1
     number of bfgs steps    =   0

     enthalpy           new  =     -17.3344099421 Ry

     new trust radius        =       0.0259913203 bohr
ibrav =      2
 celldm(1) =     10.60421848
Input lattice vectors:
    -0.49627854    -0.00000000     0.49627854
    -0.00000000     0.49627854     0.49627854
    -0.49627854     0.49627854     0.00000000
New lattice vectors in INITIAL alat:
    -0.49627854     0.00000000     0.49627854
     0.00000000     0.49627854     0.49627854
    -0.49627854     0.49627854     0.00000000
New lattice vectors in NEW alat (for information only):
    -0.50000000     0.00000000     0.50000000
     0.00000000     0.50000000     0.50000000
    -0.50000000     0.50000000     0.00000000
Discrepancy in bohr =     0.000000    0.000000    0.000000
     new conv_thr            =            1.0E-10 Ry

     new unit-cell volume =    298.10963 a.u.^3 (    44.17529 Ang^3 )
     density =      5.40721 g/cm^3

CELL_PARAMETERS (alat= 10.68373672)
  -0.496278538   0.000000000   0.496278538
   0.000000000   0.496278538   0.496278538
  -0.496278538   0.496278538   0.000000000

ATOMIC_POSITIONS (crystal)
Ga            0.0000000000        0.0000000000        0.0000000000    0   0   0
As            0.2500000000        0.2500000000        0.2500000000    0   0   0



     Writing config-only to output data dir ./work/GaAs.save/
     NEW-OLD atomic charge density approx. for the potential
     extrapolated charge    7.86401, renormalised to    8.00000

     total cpu time spent up to now is        5.7 secs

     Self-consistent Calculation

     iteration #  1     ecut=    80.00 Ry     beta= 0.15
     Davidson diagonalization with overlap
     ethr =  1.00E-06,  avg # of iterations =  5.7

     total cpu time spent up to now is        6.0 secs

     total energy              =     -17.33576041 Ry
     estimated scf accuracy    <       0.00044301 Ry

     iteration #  2     ecut=    80.00 Ry     beta= 0.15
     Davidson diagonalization with overlap
     ethr =  5.54E-06,  avg # of iterations =  2.7

     total cpu time spent up to now is        6.3 secs

     total energy              =     -17.33612515 Ry
     estimated scf accuracy    <       0.00001268 Ry

     iteration #  3     ecut=    80.00 Ry     beta= 0.15
     Davidson diagonalization with overlap
     ethr =  1.59E-07,  avg # of iterations =  3.3

     total cpu time spent up to now is        6.5 secs

     total energy              =     -17.33612700 Ry
     estimated scf accuracy    <       0.00001482 Ry

     iteration #  4     ecut=    80.00 Ry     beta= 0.15
     Davidson diagonalization with overlap
     ethr =  1.59E-07,  avg # of iterations =  1.2

     total cpu time spent up to now is        6.6 secs

     total energy              =     -17.33612738 Ry
     estimated scf accuracy    <       0.00000284 Ry

     iteration #  5     ecut=    80.00 Ry     beta= 0.15
     Davidson diagonalization with overlap
     ethr =  3.55E-08,  avg # of iterations =  2.4

     total cpu time spent up to now is        6.8 secs

     total energy              =     -17.33612782 Ry
     estimated scf accuracy    <       0.00000385 Ry

     iteration #  6     ecut=    80.00 Ry     beta= 0.15
     Davidson diagonalization with overlap
     ethr =  3.55E-08,  avg # of iterations =  1.0

     total cpu time spent up to now is        7.0 secs

     total energy              =     -17.33612716 Ry
     estimated scf accuracy    <       0.00000146 Ry

     iteration #  7     ecut=    80.00 Ry     beta= 0.15
     Davidson diagonalization with overlap
     ethr =  1.82E-08,  avg # of iterations =  2.0

     total cpu time spent up to now is        7.2 secs

     total energy              =     -17.33612746 Ry
     estimated scf accuracy    <          8.8E-09 Ry

     iteration #  8     ecut=    80.00 Ry     beta= 0.15
     Davidson diagonalization with overlap
     ethr =  1.10E-10,  avg # of iterations =  4.4

     total cpu time spent up to now is        7.5 secs

     total energy              =     -17.33612749 Ry
     estimated scf accuracy    <       0.00000005 Ry

     iteration #  9     ecut=    80.00 Ry     beta= 0.15
     Davidson diagonalization with overlap
     ethr =  1.10E-10,  avg # of iterations =  1.0

     total cpu time spent up to now is        7.6 secs

     total energy              =     -17.33612748 Ry
     estimated scf accuracy    <       0.00000005 Ry

     iteration # 10     ecut=    80.00 Ry     beta= 0.15
     Davidson diagonalization with overlap
     ethr =  1.10E-10,  avg # of iterations =  1.0

     total cpu time spent up to now is        7.8 secs

     total energy              =     -17.33612746 Ry
     estimated scf accuracy    <       0.00000004 Ry

     iteration # 11     ecut=    80.00 Ry     beta= 0.15
     Davidson diagonalization with overlap
     ethr =  1.10E-10,  avg # of iterations =  2.3

     total cpu time spent up to now is        8.0 secs

     total energy              =     -17.33612747 Ry
     estimated scf accuracy    <          2.5E-09 Ry

     iteration # 12     ecut=    80.00 Ry     beta= 0.15
     Davidson diagonalization with overlap
     ethr =  3.10E-11,  avg # of iterations =  1.0

     total cpu time spent up to now is        8.1 secs

     total energy              =     -17.33612747 Ry
     estimated scf accuracy    <          2.0E-09 Ry

     iteration # 13     ecut=    80.00 Ry     beta= 0.15
     Davidson diagonalization with overlap
     ethr =  2.50E-11,  avg # of iterations =  1.2

     total cpu time spent up to now is        8.3 secs

     total energy              =     -17.33612747 Ry
     estimated scf accuracy    <          6.5E-10 Ry

     iteration # 14     ecut=    80.00 Ry     beta= 0.15
     Davidson diagonalization with overlap
     ethr =  8.11E-12,  avg # of iterations =  2.0

     total cpu time spent up to now is        8.5 secs

     total energy              =     -17.33612747 Ry
     estimated scf accuracy    <          1.0E-10 Ry

     iteration # 15     ecut=    80.00 Ry     beta= 0.15
     Davidson diagonalization with overlap
     ethr =  1.27E-12,  avg # of iterations =  2.0

     total cpu time spent up to now is        8.7 secs

     End of self-consistent calculation

          k =-0.0630 0.0630 0.0630 (  3707 PWs)   bands (ev):

    -7.9237   4.0339   4.8014   4.8014

          k =-0.1889 0.1889-0.0630 (  3688 PWs)   bands (ev):

    -7.6984   2.3952   4.1073   4.6829

          k =-0.3148 0.3148-0.1889 (  3690 PWs)   bands (ev):

    -7.1756   0.3177   3.5833   4.2500

          k =-0.4408 0.4408-0.3148 (  3699 PWs)   bands (ev):

    -6.5304  -1.3037   3.3233   3.8485

          k = 0.4408-0.4408 0.5667 (  3685 PWs)   bands (ev):

    -6.2726  -1.8131   3.3460   3.6416

          k = 0.3148-0.3148 0.4408 (  3690 PWs)   bands (ev):

    -6.7359  -0.8505   3.6294   3.6881

          k = 0.1889-0.1889 0.3148 (  3682 PWs)   bands (ev):

    -7.3762   0.9892   3.9876   4.0985

          k = 0.0630-0.0630 0.1889 (  3691 PWs)   bands (ev):

    -7.8099   3.1242   4.4512   4.5334

          k =-0.0630 0.3148 0.0630 (  3680 PWs)   bands (ev):

    -7.5856   2.1183   3.9420   3.9648

          k =-0.1889 0.4408-0.0630 (  3679 PWs)   bands (ev):

    -7.1608   0.7040   3.0123   3.7085

          k =-0.3148 0.5667-0.1889 (  3677 PWs)   bands (ev):

    -6.5388  -0.8561   2.4323   3.3300

          k = 0.5667-0.3148 0.6927 (  3684 PWs)   bands (ev):

    -6.0960  -1.7194   2.1146   3.2416

          k = 0.4408-0.1889 0.5667 (  3684 PWs)   bands (ev):

    -6.3461  -1.2493   2.0843   3.5057

          k = 0.3148-0.0630 0.4408 (  3687 PWs)   bands (ev):

    -6.9703   0.1423   2.4841   3.9789

          k = 0.1889 0.0630 0.3148 (  3682 PWs)   bands (ev):

    -7.4791   1.5482   3.5672   4.3183

          k =-0.0630 0.5667 0.0630 (  3657 PWs)   bands (ev):

    -6.8451   0.1507   2.8531   2.9607

          k =-0.1889 0.6927-0.0630 (  3679 PWs)   bands (ev):

    -6.3099  -0.8705   2.1081   2.6278

          k = 0.6927-0.1889 0.8186 (  3684 PWs)   bands (ev):

    -5.8248  -1.6252   1.2983   2.5908

          k = 0.5667-0.0630 0.6927 (  3681 PWs)   bands (ev):

    -5.8654  -1.5525   0.9751   2.9206

          k = 0.4408 0.0630 0.5667 (  3684 PWs)   bands (ev):

    -6.3749  -0.9213   1.5475   3.4733

          k = 0.3148 0.1889 0.4408 (  3682 PWs)   bands (ev):

    -6.8891  -0.3117   3.0371   3.8756

          k =-0.0630 0.8186 0.0630 (  3682 PWs)   bands (ev):

    -5.9144  -1.4912   2.1647   2.3455

          k = 0.8186-0.0630 0.9445 (  3688 PWs)   bands (ev):

    -5.5829  -1.9133   1.6669   2.1364

          k = 0.6927 0.0630 0.8186 (  3692 PWs)   bands (ev):

    -5.6153  -1.8064   1.0026   2.4473

          k = 0.5667 0.1889 0.6927 (  3678 PWs)   bands (ev):

    -5.9434  -1.6669   1.4280   3.0277

          k = 0.4408 0.3148 0.5667 (  3696 PWs)   bands (ev):

    -6.3038  -1.6036   2.8074   3.5593

          k =-0.0630-0.9445 0.0630 (  3679 PWs)   bands (ev):

    -5.5967  -1.9550   2.0231   2.2181

          k =-0.1889-0.8186-0.0630 (  3679 PWs)   bands (ev):

    -5.8757  -1.5140   1.8184   2.2998

          k =-0.3148-0.6927-0.1889 (  3681 PWs)   bands (ev):

    -6.1628  -1.2988   1.8154   2.8834

          k =-0.0630-0.6927 0.0630 (  3678 PWs)   bands (ev):

    -6.3752  -0.7424   2.4443   2.5962

          k =-0.1889-0.5667-0.0630 (  3672 PWs)   bands (ev):

    -6.7602  -0.1107   2.5143   3.1110

          k =-0.0630-0.4408 0.0630 (  3667 PWs)   bands (ev):

    -7.2589   1.1167   3.3729   3.4209

          k =-0.1889 0.1889 0.1889 (  3689 PWs)   bands (ev):

    -7.5896   1.7486   4.4104   4.4104

          k =-0.3148 0.3148 0.0630 (  3684 PWs)   bands (ev):

    -7.2705   0.8407   3.0242   4.3947

          k =-0.4408 0.4408-0.0630 (  3686 PWs)   bands (ev):

    -6.7006  -0.4193   1.9699   3.9257

          k = 0.4408-0.4408 0.8186 (  3685 PWs)   bands (ev):

    -6.1354  -1.5299   1.7266   3.4188

          k = 0.3148-0.3148 0.6927 (  3684 PWs)   bands (ev):

    -6.1243  -1.5563   1.9936   3.1192

          k = 0.1889-0.1889 0.5667 (  3674 PWs)   bands (ev):

    -6.6833  -0.4265   2.6173   3.1178

          k =-0.1889 0.4408 0.1889 (  3683 PWs)   bands (ev):

    -7.0679   0.2549   3.3756   3.5326

          k =-0.3148 0.5667 0.0630 (  3687 PWs)   bands (ev):

    -6.5979  -0.5074   2.0203   3.3328

          k = 0.5667-0.3148 0.9445 (  3682 PWs)   bands (ev):

    -6.0318  -1.3349   1.2587   2.8177

          k = 0.4408-0.1889 0.8186 (  3683 PWs)   bands (ev):

    -5.8028  -1.6776   1.2246   2.5285

          k = 0.3148-0.0630 0.6927 (  3683 PWs)   bands (ev):

    -6.1890  -1.0886   1.6668   2.6929

          k =-0.1889 0.6927 0.1889 (  3685 PWs)   bands (ev):

    -6.2570  -1.0428   1.9661   2.7830

          k = 0.6927-0.1889 1.0705 (  3687 PWs)   bands (ev):

    -5.8085  -1.5638   1.4395   2.1913

          k = 0.5667-0.0630 0.9445 (  3688 PWs)   bands (ev):

    -5.5488  -1.8029   1.1457   1.7446

          k = 0.4408 0.0630 0.8186 (  3692 PWs)   bands (ev):

    -5.7308  -1.6381   1.1286   2.1840

          k =-0.1889-1.0705 0.1889 (  3683 PWs)   bands (ev):

    -5.5914  -1.8742   1.2545   2.4312

          k =-0.3148-0.9445 0.0630 (  3691 PWs)   bands (ev):

    -5.5631  -1.8505   1.3361   1.9117

          k =-0.1889-0.8186 0.1889 (  3682 PWs)   bands (ev):

    -5.8549  -1.5573   1.4975   2.5502

          k =-0.3148 0.3148 0.3148 (  3687 PWs)   bands (ev):

    -6.9923  -0.3004   3.9960   3.9960

          k =-0.4408 0.4408 0.1889 (  3687 PWs)   bands (ev):

    -6.6397  -0.8337   2.5635   3.9024

          k = 0.4408-0.4408 1.0705 (  3691 PWs)   bands (ev):

    -6.1180  -1.2816   1.1818   3.3628

          k = 0.3148-0.3148 0.9445 (  3682 PWs)   bands (ev):

    -5.7192  -1.7106   0.8776   2.8319

          k =-0.3148 0.5667 0.3148 (  3699 PWs)   bands (ev):

    -6.4327  -1.2776   2.8283   3.3814

          k = 0.5667-0.3148 1.1964 (  3670 PWs)   bands (ev):

    -6.0492  -1.5313   1.6285   2.9653

          k = 0.4408-0.1889 1.0705 (  3690 PWs)   bands (ev):

    -5.6621  -1.7236   0.9643   2.3023

          k =-0.3148-1.1964 0.3148 (  3681 PWs)   bands (ev):

    -5.8668  -1.6854   1.2943   2.9303

          k =-0.4408 0.4408 0.4408 (  3687 PWs)   bands (ev):

    -6.3973  -1.6541   3.7589   3.7589

          k = 0.4408-0.4408 1.3223 (  3685 PWs)   bands (ev):

    -6.1830  -1.7581   2.5292   3.5191

     highest occupied level (ev):     4.8014

!    total energy              =     -17.33612747 Ry
     estimated scf accuracy    <          7.9E-11 Ry

     The total energy is the sum of the following terms:
     one-electron contribution =       2.89855194 Ry
     hartree contribution      =       1.53902366 Ry
     xc contribution           =      -4.80466477 Ry
     ewald contribution        =     -16.96903831 Ry

     convergence has been achieved in  15 iterations


     Computing stress (Cartesian axis) and pressure

          total   stress  (Ry/bohr**3)                   (kbar)     P=      -30.71
  -0.00020873  -0.00000000  -0.00000000          -30.71       -0.00       -0.00
  -0.00000000  -0.00020873   0.00000000           -0.00      -30.71        0.00
  -0.00000000   0.00000000  -0.00020873           -0.00        0.00      -30.71

     Energy error            =      1.7E-03 Ry
     Gradient error          =      0.0E+00 Ry/Bohr
     Cell gradient error     =      3.1E+01 kbar

     number of scf cycles    =   2
     number of bfgs steps    =   1

     enthalpy           old  =     -17.3344099421 Ry
     enthalpy           new  =     -17.3361274694 Ry

     CASE: enthalpy          _new < enthalpy          _old

     new trust radius        =       0.0388416209 bohr
ibrav =      2
 celldm(1) =     10.48494112
Input lattice vectors:
    -0.49069635     0.00000000     0.49069635
    -0.00000000     0.49069635     0.49069635
    -0.49069635     0.49069635     0.00000000
New lattice vectors in INITIAL alat:
    -0.49069635     0.00000000     0.49069635
     0.00000000     0.49069635     0.49069635
    -0.49069635     0.49069635     0.00000000
New lattice vectors in NEW alat (for information only):
    -0.50000000     0.00000000     0.50000000
     0.00000000     0.50000000     0.50000000
    -0.50000000     0.50000000     0.00000000
Discrepancy in bohr =     0.000000    0.000000    0.000000
     new conv_thr            =            1.0E-12 Ry

     new unit-cell volume =    288.16285 a.u.^3 (    42.70133 Ang^3 )
     density =      5.59386 g/cm^3

CELL_PARAMETERS (alat= 10.68373672)
  -0.490696345   0.000000000   0.490696345
   0.000000000   0.490696345   0.490696345
  -0.490696345   0.490696345   0.000000000

ATOMIC_POSITIONS (crystal)
Ga            0.0000000000        0.0000000000        0.0000000000    0   0   0
As            0.2500000000        0.2500000000        0.2500000000    0   0   0



     Writing config-only to output data dir ./work/GaAs.save/
     NEW-OLD atomic charge density approx. for the potential
     extrapolated charge    7.79289, renormalised to    8.00000

     total cpu time spent up to now is        8.8 secs

     Self-consistent Calculation

     iteration #  1     ecut=    80.00 Ry     beta= 0.15
     Davidson diagonalization with overlap
     ethr =  1.00E-06,  avg # of iterations =  6.4

     total cpu time spent up to now is        9.2 secs

     total energy              =     -17.33664608 Ry
     estimated scf accuracy    <       0.00099718 Ry

     iteration #  2     ecut=    80.00 Ry     beta= 0.15
     Davidson diagonalization with overlap
     ethr =  1.25E-05,  avg # of iterations =  2.6

     total cpu time spent up to now is        9.4 secs

     total energy              =     -17.33745451 Ry
     estimated scf accuracy    <       0.00003129 Ry

     iteration #  3     ecut=    80.00 Ry     beta= 0.15
     Davidson diagonalization with overlap
     ethr =  3.91E-07,  avg # of iterations =  3.1

     total cpu time spent up to now is        9.6 secs

     total energy              =     -17.33745831 Ry
     estimated scf accuracy    <       0.00003274 Ry

     iteration #  4     ecut=    80.00 Ry     beta= 0.15
     Davidson diagonalization with overlap
     ethr =  3.91E-07,  avg # of iterations =  1.3

     total cpu time spent up to now is        9.8 secs

     total energy              =     -17.33746088 Ry
     estimated scf accuracy    <       0.00000322 Ry

     iteration #  5     ecut=    80.00 Ry     beta= 0.15
     Davidson diagonalization with overlap
     ethr =  4.02E-08,  avg # of iterations =  2.6

     total cpu time spent up to now is       10.0 secs

     total energy              =     -17.33746058 Ry
     estimated scf accuracy    <       0.00000591 Ry

     iteration #  6     ecut=    80.00 Ry     beta= 0.15
     Davidson diagonalization with overlap
     ethr =  4.02E-08,  avg # of iterations =  1.0

     total cpu time spent up to now is       10.2 secs

     total energy              =     -17.33745997 Ry
     estimated scf accuracy    <       0.00000160 Ry

     iteration #  7     ecut=    80.00 Ry     beta= 0.15
     Davidson diagonalization with overlap
     ethr =  2.01E-08,  avg # of iterations =  2.0

     total cpu time spent up to now is       10.4 secs

     total energy              =     -17.33746038 Ry
     estimated scf accuracy    <       0.00000002 Ry

     iteration #  8     ecut=    80.00 Ry     beta= 0.15
     Davidson diagonalization with overlap
     ethr =  2.25E-10,  avg # of iterations =  3.9

     total cpu time spent up to now is       10.6 secs

     total energy              =     -17.33746040 Ry
     estimated scf accuracy    <       0.00000009 Ry

     iteration #  9     ecut=    80.00 Ry     beta= 0.15
     Davidson diagonalization with overlap
     ethr =  2.25E-10,  avg # of iterations =  1.0

     total cpu time spent up to now is       10.8 secs

     total energy              =     -17.33746035 Ry
     estimated scf accuracy    <       0.00000008 Ry

     iteration # 10     ecut=    80.00 Ry     beta= 0.15
     Davidson diagonalization with overlap
     ethr =  2.25E-10,  avg # of iterations =  3.0

     total cpu time spent up to now is       11.0 secs

     total energy              =     -17.33746037 Ry
     estimated scf accuracy    <          3.9E-09 Ry

     iteration # 11     ecut=    80.00 Ry     beta= 0.15
     Davidson diagonalization with overlap
     ethr =  4.92E-11,  avg # of iterations =  2.0

     total cpu time spent up to now is       11.2 secs

     total energy              =     -17.33746037 Ry
     estimated scf accuracy    <          6.7E-10 Ry

     iteration # 12     ecut=    80.00 Ry     beta= 0.15
     Davidson diagonalization with overlap
     ethr =  8.33E-12,  avg # of iterations =  1.0

     total cpu time spent up to now is       11.4 secs

     total energy              =     -17.33746037 Ry
     estimated scf accuracy    <          4.4E-10 Ry

     iteration # 13     ecut=    80.00 Ry     beta= 0.15
     Davidson diagonalization with overlap
     ethr =  5.44E-12,  avg # of iterations =  2.0

     total cpu time spent up to now is       11.5 secs

     End of self-consistent calculation

          k =-0.0637 0.0637 0.0637 (  3707 PWs)   bands (ev):

    -7.8132   4.4312   5.1513   5.1513

          k =-0.1911 0.1911-0.0637 (  3688 PWs)   bands (ev):

    -7.5783   2.7530   4.4227   5.0287

          k =-0.3184 0.3184-0.1911 (  3690 PWs)   bands (ev):

    -7.0311   0.5920   3.8838   4.5766

          k =-0.4458 0.4458-0.3184 (  3699 PWs)   bands (ev):

    -6.3485  -1.1033   3.6192   4.1583

          k = 0.4458-0.4458 0.5732 (  3685 PWs)   bands (ev):

    -6.0719  -1.6408   3.6458   3.9420

          k = 0.3184-0.3184 0.4458 (  3690 PWs)   bands (ev):

    -6.5672  -0.6278   3.9401   3.9885

          k = 0.1911-0.1911 0.3184 (  3682 PWs)   bands (ev):

    -7.2416   1.2911   4.2984   4.4253

          k = 0.0637-0.0637 0.1911 (  3691 PWs)   bands (ev):

    -7.6946   3.5111   4.7819   4.8740

          k =-0.0637 0.3184 0.0637 (  3680 PWs)   bands (ev):

    -7.4608   2.4857   4.2486   4.2784

          k =-0.1911 0.4458-0.0637 (  3679 PWs)   bands (ev):

    -7.0163   1.0178   3.2825   4.0124

          k =-0.3184 0.5732-0.1911 (  3677 PWs)   bands (ev):

    -6.3600  -0.6193   2.6943   3.6152

          k = 0.5732-0.3184 0.7005 (  3684 PWs)   bands (ev):

    -5.8855  -1.5331   2.3704   3.5219

          k = 0.4458-0.1911 0.5732 (  3684 PWs)   bands (ev):

    -6.1543  -1.0347   2.3330   3.7987

          k = 0.3184-0.0637 0.4458 (  3687 PWs)   bands (ev):

    -6.8159   0.4289   2.7340   4.2943

          k = 0.1911 0.0637 0.3184 (  3682 PWs)   bands (ev):

    -7.3494   1.8833   3.8594   4.6501

          k =-0.0637 0.5732 0.0637 (  3657 PWs)   bands (ev):

    -6.6855   0.4590   3.1162   3.2276

          k =-0.1911 0.7005-0.0637 (  3679 PWs)   bands (ev):

    -6.1199  -0.6084   2.3410   2.8808

          k = 0.7005-0.1911 0.8279 (  3684 PWs)   bands (ev):

    -5.5989  -1.4099   1.5002   2.8426

          k = 0.5732-0.0637 0.7005 (  3681 PWs)   bands (ev):

    -5.6415  -1.3340   1.1614   3.1869

          k = 0.4458 0.0637 0.5732 (  3684 PWs)   bands (ev):

    -6.1864  -0.6756   1.7609   3.7644

          k = 0.3184 0.1911 0.4458 (  3682 PWs)   bands (ev):

    -6.7298  -0.0588   3.3201   4.1873

          k =-0.0637 0.8279 0.0637 (  3682 PWs)   bands (ev):

    -5.6989  -1.2593   2.3998   2.5896

          k = 0.8279-0.0637 0.9553 (  3688 PWs)   bands (ev):

    -5.3397  -1.7093   1.8788   2.3702

          k = 0.7005 0.0637 0.8279 (  3692 PWs)   bands (ev):

    -5.3728  -1.5973   1.1846   2.6936

          k = 0.5732 0.1911 0.7005 (  3678 PWs)   bands (ev):

    -5.7237  -1.4676   1.6467   3.2985

          k = 0.4458 0.3184 0.5732 (  3696 PWs)   bands (ev):

    -6.1070  -1.4163   3.0900   3.8555

          k =-0.0637-0.9553 0.0637 (  3679 PWs)   bands (ev):

    -5.3553  -1.7539   2.2527   2.4576

          k =-0.1911-0.8279-0.0637 (  3679 PWs)   bands (ev):

    -5.6565  -1.2839   2.0377   2.5395

          k =-0.3184-0.7005-0.1911 (  3681 PWs)   bands (ev):

    -5.9607  -1.0742   2.0483   3.1473

          k =-0.0637-0.7005 0.0637 (  3678 PWs)   bands (ev):

    -6.1899  -0.4713   2.6905   2.8495

          k =-0.1911-0.5732-0.0637 (  3672 PWs)   bands (ev):

    -6.5956   0.1796   2.7647   3.3861

          k =-0.0637-0.4458 0.0637 (  3667 PWs)   bands (ev):

    -7.1194   1.4574   3.6588   3.7058

          k =-0.1911 0.1911 0.1911 (  3689 PWs)   bands (ev):

    -7.4647   2.0751   4.7416   4.7416

          k =-0.3184 0.3184 0.0637 (  3684 PWs)   bands (ev):

    -7.1310   1.1491   3.2947   4.7283

          k =-0.4458 0.4458-0.0637 (  3686 PWs)   bands (ev):

    -6.5314  -0.1554   2.2002   4.2377

          k = 0.4458-0.4458 0.8279 (  3685 PWs)   bands (ev):

    -5.9289  -1.3286   1.9604   3.7083

          k = 0.3184-0.3184 0.7005 (  3684 PWs)   bands (ev):

    -5.9174  -1.3558   2.2412   3.3951

          k = 0.1911-0.1911 0.5732 (  3674 PWs)   bands (ev):

    -6.5139  -0.1616   2.8835   3.3920

          k =-0.1911 0.4458 0.1911 (  3683 PWs)   bands (ev):

    -6.9185   0.5372   3.6768   3.8236

          k =-0.3184 0.5732 0.0637 (  3687 PWs)   bands (ev):

    -6.4236  -0.2405   2.2520   3.6179

          k = 0.5732-0.3184 0.9553 (  3682 PWs)   bands (ev):

    -5.8209  -1.1039   1.4586   3.0775

          k = 0.4458-0.1911 0.8279 (  3683 PWs)   bands (ev):

    -5.5740  -1.4696   1.4280   2.7744

          k = 0.3184-0.0637 0.7005 (  3683 PWs)   bands (ev):

    -5.9901  -0.8416   1.8832   2.9471

          k =-0.1911 0.7005 0.1911 (  3685 PWs)   bands (ev):

    -6.0627  -0.7965   2.1981   3.0442

          k = 0.7005-0.1911 1.0826 (  3687 PWs)   bands (ev):

    -5.5829  -1.3382   1.6436   2.4225

          k = 0.5732-0.0637 0.9553 (  3688 PWs)   bands (ev):

    -5.3010  -1.5908   1.3335   1.9549

          k = 0.4458 0.0637 0.8279 (  3692 PWs)   bands (ev):

    -5.4978  -1.4187   1.3195   2.4138

          k =-0.1911-1.0826 0.1911 (  3683 PWs)   bands (ev):

    -5.3480  -1.6683   1.4471   2.6791

          k =-0.3184-0.9553 0.0637 (  3691 PWs)   bands (ev):

    -5.3172  -1.6419   1.5325   2.1320

          k =-0.1911-0.8279 0.1911 (  3682 PWs)   bands (ev):

    -5.6331  -1.3328   1.7036   2.8026

          k =-0.3184 0.3184 0.3184 (  3687 PWs)   bands (ev):

    -6.8381  -0.0556   4.3106   4.3106

          k =-0.4458 0.4458 0.1911 (  3687 PWs)   bands (ev):

    -6.4660  -0.6033   2.8295   4.2139

          k = 0.4458-0.4458 1.0826 (  3691 PWs)   bands (ev):

    -5.9122  -1.0524   1.3794   3.6495

          k = 0.3184-0.3184 0.9553 (  3682 PWs)   bands (ev):

    -5.4841  -1.4989   1.0567   3.0961

          k =-0.3184 0.5732 0.3184 (  3699 PWs)   bands (ev):

    -6.2458  -1.0702   3.1133   3.6684

          k = 0.5732-0.3184 1.2100 (  3670 PWs)   bands (ev):

    -5.8377  -1.3243   1.8570   3.2318

          k = 0.4458-0.1911 1.0826 (  3690 PWs)   bands (ev):

    -5.4230  -1.5101   1.1465   2.5391

          k =-0.3184-1.2100 0.3184 (  3681 PWs)   bands (ev):

    -5.6423  -1.4821   1.5024   3.1984

          k =-0.4458 0.4458 0.4458 (  3687 PWs)   bands (ev):

    -6.2054  -1.4739   4.0648   4.0648

          k = 0.4458-0.4458 1.3374 (  3685 PWs)   bands (ev):

    -5.9775  -1.5787   2.8016   3.8135

     highest occupied level (ev):     5.1513

!    total energy              =     -17.33746037 Ry
     estimated scf accuracy    <          5.4E-13 Ry

     The total energy is the sum of the following terms:
     one-electron contribution =       3.16455146 Ry
     hartree contribution      =       1.49710787 Ry
     xc contribution           =      -4.83704054 Ry
     ewald contribution        =     -17.16207917 Ry

     convergence has been achieved in  13 iterations


     Computing stress (Cartesian axis) and pressure

          total   stress  (Ry/bohr**3)                   (kbar)     P=       -7.99
  -0.00005433   0.00000000   0.00000000           -7.99        0.00        0.00
  -0.00000000  -0.00005433  -0.00000000           -0.00       -7.99       -0.00
  -0.00000000  -0.00000000  -0.00005433           -0.00       -0.00       -7.99

     Energy error            =      1.3E-03 Ry
     Gradient error          =      0.0E+00 Ry/Bohr
     Cell gradient error     =      8.0E+00 kbar

     number of scf cycles    =   3
     number of bfgs steps    =   2

     enthalpy           old  =     -17.3361274694 Ry
     enthalpy           new  =     -17.3374603706 Ry

     CASE: enthalpy          _new < enthalpy          _old

     new trust radius        =       0.0131813110 bohr
ibrav =      2
 celldm(1) =     10.44423351
Input lattice vectors:
    -0.48879122    -0.00000000     0.48879122
     0.00000000     0.48879122     0.48879122
    -0.48879122     0.48879122    -0.00000000
New lattice vectors in INITIAL alat:
    -0.48879122     0.00000000     0.48879122
     0.00000000     0.48879122     0.48879122
    -0.48879122     0.48879122     0.00000000
New lattice vectors in NEW alat (for information only):
    -0.50000000     0.00000000     0.50000000
     0.00000000     0.50000000     0.50000000
    -0.50000000     0.50000000     0.00000000
Discrepancy in bohr =     0.000000    0.000000    0.000000
     new conv_thr            =            1.0E-12 Ry

     new unit-cell volume =    284.81951 a.u.^3 (    42.20590 Ang^3 )
     density =      5.65952 g/cm^3

CELL_PARAMETERS (alat= 10.68373672)
  -0.488791225   0.000000000   0.488791225
   0.000000000   0.488791225   0.488791225
  -0.488791225   0.488791225   0.000000000

ATOMIC_POSITIONS (crystal)
Ga            0.0000000000        0.0000000000        0.0000000000    0   0   0
As            0.2500000000        0.2500000000        0.2500000000    0   0   0



     Writing config-only to output data dir ./work/GaAs.save/
     NEW-OLD atomic charge density approx. for the potential
     extrapolated charge    7.92957, renormalised to    8.00000

     total cpu time spent up to now is       11.7 secs

     Self-consistent Calculation

     iteration #  1     ecut=    80.00 Ry     beta= 0.15
     Davidson diagonalization with overlap
     ethr =  1.00E-06,  avg # of iterations =  4.1

     total cpu time spent up to now is       12.0 secs

     total energy              =     -17.33745617 Ry
     estimated scf accuracy    <       0.00010054 Ry

     iteration #  2     ecut=    80.00 Ry     beta= 0.15
     Davidson diagonalization with overlap
     ethr =  1.26E-06,  avg # of iterations =  2.6

     total cpu time spent up to now is       12.2 secs

     total energy              =     -17.33754402 Ry
     estimated scf accuracy    <       0.00000318 Ry

     iteration #  3     ecut=    80.00 Ry     beta= 0.15
     Davidson diagonalization with overlap
     ethr =  3.98E-08,  avg # of iterations =  3.0

     total cpu time spent up to now is       12.4 secs

     total energy              =     -17.33754436 Ry
     estimated scf accuracy    <       0.00000355 Ry

     iteration #  4     ecut=    80.00 Ry     beta= 0.15
     Davidson diagonalization with overlap
     ethr =  3.98E-08,  avg # of iterations =  1.1

     total cpu time spent up to now is       12.6 secs

     total energy              =     -17.33754453 Ry
     estimated scf accuracy    <       0.00000055 Ry

     iteration #  5     ecut=    80.00 Ry     beta= 0.15
     Davidson diagonalization with overlap
     ethr =  6.87E-09,  avg # of iterations =  2.4

     total cpu time spent up to now is       12.8 secs

     total energy              =     -17.33754464 Ry
     estimated scf accuracy    <       0.00000077 Ry

     iteration #  6     ecut=    80.00 Ry     beta= 0.15
     Davidson diagonalization with overlap
     ethr =  6.87E-09,  avg # of iterations =  1.0

     total cpu time spent up to now is       13.0 secs

     total energy              =     -17.33754444 Ry
     estimated scf accuracy    <       0.00000038 Ry

     iteration #  7     ecut=    80.00 Ry     beta= 0.15
     Davidson diagonalization with overlap
     ethr =  4.77E-09,  avg # of iterations =  2.0

     total cpu time spent up to now is       13.2 secs

     total energy              =     -17.33754452 Ry
     estimated scf accuracy    <          1.2E-09 Ry

     iteration #  8     ecut=    80.00 Ry     beta= 0.15
     Davidson diagonalization with overlap
     ethr =  1.44E-11,  avg # of iterations =  5.0

     total cpu time spent up to now is       13.5 secs

     total energy              =     -17.33754453 Ry
     estimated scf accuracy    <       0.00000001 Ry

     iteration #  9     ecut=    80.00 Ry     beta= 0.15
     Davidson diagonalization with overlap
     ethr =  1.44E-11,  avg # of iterations =  2.1

     total cpu time spent up to now is       13.7 secs

     total energy              =     -17.33754452 Ry
     estimated scf accuracy    <       0.00000002 Ry

     iteration # 10     ecut=    80.00 Ry     beta= 0.15
     Davidson diagonalization with overlap
     ethr =  1.44E-11,  avg # of iterations =  3.4

     total cpu time spent up to now is       14.0 secs

     total energy              =     -17.33754452 Ry
     estimated scf accuracy    <          1.9E-10 Ry

     iteration # 11     ecut=    80.00 Ry     beta= 0.15
     Davidson diagonalization with overlap
     ethr =  2.41E-12,  avg # of iterations =  1.4

     total cpu time spent up to now is       14.2 secs

     total energy              =     -17.33754452 Ry
     estimated scf accuracy    <          2.6E-10 Ry

     iteration # 12     ecut=    80.00 Ry     beta= 0.15
     Davidson diagonalization with overlap
     ethr =  2.41E-12,  avg # of iterations =  1.0

     total cpu time spent up to now is       14.3 secs

     total energy              =     -17.33754452 Ry
     estimated scf accuracy    <          1.5E-10 Ry

     iteration # 13     ecut=    80.00 Ry     beta= 0.15
     Davidson diagonalization with overlap
     ethr =  1.86E-12,  avg # of iterations =  2.0

     total cpu time spent up to now is       14.5 secs

     total energy              =     -17.33754452 Ry
     estimated scf accuracy    <          1.5E-12 Ry

     iteration # 14     ecut=    80.00 Ry     beta= 0.15
     Davidson diagonalization with overlap
     ethr =  1.00E-13,  avg # of iterations =  2.4

     total cpu time spent up to now is       14.7 secs

     End of self-consistent calculation

          k =-0.0639 0.0639 0.0639 (  3707 PWs)   bands (ev):

    -7.7748   4.5682   5.2744   5.2744

          k =-0.1918 0.1918-0.0639 (  3688 PWs)   bands (ev):

    -7.5366   2.8775   4.5336   5.1504

          k =-0.3197 0.3197-0.1918 (  3690 PWs)   bands (ev):

    -6.9808   0.6876   3.9896   4.6915

          k =-0.4475 0.4475-0.3197 (  3699 PWs)   bands (ev):

    -6.2852  -1.0334   3.7233   4.2673

          k = 0.4475-0.4475 0.5754 (  3685 PWs)   bands (ev):

    -6.0018  -1.5808   3.7513   4.0478

          k = 0.3197-0.3197 0.4475 (  3690 PWs)   bands (ev):

    -6.5085  -0.5501   4.0495   4.0943

          k = 0.1918-0.1918 0.3197 (  3682 PWs)   bands (ev):

    -7.1947   1.3963   4.4078   4.5404

          k = 0.0639-0.0639 0.1918 (  3691 PWs)   bands (ev):

    -7.6546   3.6454   4.8982   4.9940

          k =-0.0639 0.3197 0.0639 (  3680 PWs)   bands (ev):

    -7.4174   2.6137   4.3565   4.3889

          k =-0.1918 0.4475-0.0639 (  3679 PWs)   bands (ev):

    -6.9660   1.1275   3.3776   4.1195

          k =-0.3197 0.5754-0.1918 (  3677 PWs)   bands (ev):

    -6.2977  -0.5366   2.7867   3.7156

          k = 0.5754-0.3197 0.7033 (  3684 PWs)   bands (ev):

    -5.8120  -1.4683   2.4607   3.6205

          k = 0.4475-0.1918 0.5754 (  3684 PWs)   bands (ev):

    -6.0875  -0.9597   2.4207   3.9018

          k = 0.3197-0.0639 0.4475 (  3687 PWs)   bands (ev):

    -6.7622   0.5290   2.8219   4.4053

          k = 0.1918 0.0639 0.3197 (  3682 PWs)   bands (ev):

    -7.3043   2.0001   3.9622   4.7670

          k =-0.0639 0.5754 0.0639 (  3657 PWs)   bands (ev):

    -6.6300   0.5672   3.2088   3.3215

          k =-0.1918 0.7033-0.0639 (  3679 PWs)   bands (ev):

    -6.0538  -0.5163   2.4229   2.9698

          k = 0.7033-0.1918 0.8311 (  3684 PWs)   bands (ev):

    -5.5201  -1.3345   1.5714   2.9311

          k = 0.5754-0.0639 0.7033 (  3681 PWs)   bands (ev):

    -5.5633  -1.2573   1.2270   3.2805

          k = 0.4475 0.0639 0.5754 (  3684 PWs)   bands (ev):

    -6.1207  -0.5895   1.8361   3.8668

          k = 0.3197 0.1918 0.4475 (  3682 PWs)   bands (ev):

    -6.6744   0.0295   3.4198   4.2971

          k =-0.0639 0.8311 0.0639 (  3682 PWs)   bands (ev):

    -5.6238  -1.1777   2.4825   2.6755

          k = 0.8311-0.0639 0.9590 (  3688 PWs)   bands (ev):

    -5.2547  -1.6377   1.9533   2.4524

          k = 0.7033 0.0639 0.8311 (  3692 PWs)   bands (ev):

    -5.2880  -1.5239   1.2486   2.7802

          k = 0.5754 0.1918 0.7033 (  3678 PWs)   bands (ev):

    -5.6469  -1.3981   1.7239   3.3937

          k = 0.4475 0.3197 0.5754 (  3696 PWs)   bands (ev):

    -6.0383  -1.3510   3.1895   3.9598

          k =-0.0639-0.9590 0.0639 (  3679 PWs)   bands (ev):

    -5.2710  -1.6832   2.3335   2.5419

          k =-0.1918-0.8311-0.0639 (  3679 PWs)   bands (ev):

    -5.5801  -1.2030   2.1148   2.6238

          k =-0.3197-0.7033-0.1918 (  3681 PWs)   bands (ev):

    -5.8903  -0.9956   2.1305   3.2402

          k =-0.0639-0.7033 0.0639 (  3678 PWs)   bands (ev):

    -6.1255  -0.3760   2.7771   2.9385

          k =-0.1918-0.5754-0.0639 (  3672 PWs)   bands (ev):

    -6.5384   0.2814   2.8528   3.4829

          k =-0.0639-0.4475 0.0639 (  3667 PWs)   bands (ev):

    -7.0709   1.5767   3.7595   3.8060

          k =-0.1918 0.1918 0.1918 (  3689 PWs)   bands (ev):

    -7.4213   2.1887   4.8582   4.8582

          k =-0.3197 0.3197 0.0639 (  3684 PWs)   bands (ev):

    -7.0825   1.2568   3.3899   4.8457

          k =-0.4475 0.4475-0.0639 (  3686 PWs)   bands (ev):

    -6.4725  -0.0630   2.2814   4.3475

          k = 0.4475-0.4475 0.8311 (  3685 PWs)   bands (ev):

    -5.8569  -1.2583   2.0429   3.8101

          k = 0.3197-0.3197 0.7033 (  3684 PWs)   bands (ev):

    -5.8452  -1.2859   2.3286   3.4922

          k = 0.1918-0.1918 0.5754 (  3674 PWs)   bands (ev):

    -6.4549  -0.0689   2.9774   3.4884

          k =-0.1918 0.4475 0.1918 (  3683 PWs)   bands (ev):

    -6.8665   0.6357   3.7830   3.9260

          k =-0.3197 0.5754 0.0639 (  3687 PWs)   bands (ev):

    -6.3629  -0.1470   2.3336   3.7182

          k = 0.5754-0.3197 0.9590 (  3682 PWs)   bands (ev):

    -5.7473  -1.0229   1.5290   3.1689

          k = 0.4475-0.1918 0.8311 (  3683 PWs)   bands (ev):

    -5.4940  -1.3968   1.4997   2.8609

          k = 0.3197-0.0639 0.7033 (  3683 PWs)   bands (ev):

    -5.9208  -0.7548   1.9594   3.0365

          k =-0.1918 0.7033 0.1918 (  3685 PWs)   bands (ev):

    -5.9951  -0.7101   2.2799   3.1360

          k = 0.7033-0.1918 1.0869 (  3687 PWs)   bands (ev):

    -5.5042  -1.2589   1.7154   2.5038

          k = 0.5754-0.0639 0.9590 (  3688 PWs)   bands (ev):

    -5.2143  -1.5162   1.3995   2.0288

          k = 0.4475 0.0639 0.8311 (  3692 PWs)   bands (ev):

    -5.4164  -1.3416   1.3867   2.4945

          k =-0.1918-1.0869 0.1918 (  3683 PWs)   bands (ev):

    -5.2629  -1.5960   1.5147   2.7663

          k =-0.3197-0.9590 0.0639 (  3691 PWs)   bands (ev):

    -5.2312  -1.5687   1.6015   2.2094

          k =-0.1918-0.8311 0.1918 (  3682 PWs)   bands (ev):

    -5.5557  -1.2540   1.7761   2.8913

          k =-0.3197 0.3197 0.3197 (  3687 PWs)   bands (ev):

    -6.7844   0.0299   4.4212   4.4212

          k =-0.4475 0.4475 0.1918 (  3687 PWs)   bands (ev):

    -6.4055  -0.5229   2.9233   4.3236

          k = 0.4475-0.4475 1.0869 (  3691 PWs)   bands (ev):

    -5.8404  -0.9720   1.4491   3.7504

          k = 0.3197-0.3197 0.9590 (  3682 PWs)   bands (ev):

    -5.4019  -1.4247   1.1198   3.1890

          k =-0.3197 0.5754 0.3197 (  3699 PWs)   bands (ev):

    -6.1807  -0.9978   3.2138   3.7694

          k = 0.5754-0.3197 1.2147 (  3670 PWs)   bands (ev):

    -5.7639  -1.2520   1.9377   3.3254

          k = 0.4475-0.1918 1.0869 (  3690 PWs)   bands (ev):

    -5.3394  -1.4351   1.2106   2.6223

          k =-0.3197-1.2147 0.3197 (  3681 PWs)   bands (ev):

    -5.5638  -1.4110   1.5758   3.2928

          k =-0.4475 0.4475 0.4475 (  3687 PWs)   bands (ev):

    -6.1385  -1.4111   4.1725   4.1725

          k = 0.4475-0.4475 1.3426 (  3685 PWs)   bands (ev):

    -5.9057  -1.5163   2.8976   3.9171

     highest occupied level (ev):     5.2744

!    total energy              =     -17.33754452 Ry
     estimated scf accuracy    <          6.5E-14 Ry

     The total energy is the sum of the following terms:
     one-electron contribution =       3.25693791 Ry
     hartree contribution      =       1.48281963 Ry
     xc contribution           =      -4.84833171 Ry
     ewald contribution        =     -17.22897036 Ry

     convergence has been achieved in  14 iterations


     Computing stress (Cartesian axis) and pressure

          total   stress  (Ry/bohr**3)                   (kbar)     P=        0.68
   0.00000462  -0.00000000  -0.00000000            0.68       -0.00       -0.00
  -0.00000000   0.00000462  -0.00000000           -0.00        0.68       -0.00
  -0.00000000  -0.00000000   0.00000462           -0.00       -0.00        0.68

     Energy error            =      8.4E-05 Ry
     Gradient error          =      0.0E+00 Ry/Bohr
     Cell gradient error     =      6.8E-01 kbar

     number of scf cycles    =   4
     number of bfgs steps    =   3

     enthalpy           old  =     -17.3374603706 Ry
     enthalpy           new  =     -17.3375445235 Ry

     CASE: enthalpy          _new < enthalpy          _old

     new trust radius        =       0.0010239639 bohr
ibrav =      2
 celldm(1) =     10.44740196
Input lattice vectors:
    -0.48893951     0.00000000     0.48893951
    -0.00000000     0.48893951     0.48893951
    -0.48893951     0.48893951    -0.00000000
New lattice vectors in INITIAL alat:
    -0.48893951     0.00000000     0.48893951
     0.00000000     0.48893951     0.48893951
    -0.48893951     0.48893951     0.00000000
New lattice vectors in NEW alat (for information only):
    -0.50000000     0.00000000     0.50000000
     0.00000000     0.50000000     0.50000000
    -0.50000000     0.50000000     0.00000000
Discrepancy in bohr =     0.000000    0.000000    0.000000
     new conv_thr            =            1.0E-12 Ry

     new unit-cell volume =    285.07880 a.u.^3 (    42.24432 Ang^3 )
     density =      5.65437 g/cm^3

CELL_PARAMETERS (alat= 10.68373672)
  -0.488939508   0.000000000   0.488939508
   0.000000000   0.488939508   0.488939508
  -0.488939508   0.488939508   0.000000000

ATOMIC_POSITIONS (crystal)
Ga            0.0000000000        0.0000000000        0.0000000000    0   0   0
As            0.2500000000        0.2500000000        0.2500000000    0   0   0



     Writing config-only to output data dir ./work/GaAs.save/
     NEW-OLD atomic charge density approx. for the potential
     extrapolated charge    8.00546, renormalised to    8.00000

     total cpu time spent up to now is       14.9 secs

     Self-consistent Calculation

     iteration #  1     ecut=    80.00 Ry     beta= 0.15
     Davidson diagonalization with overlap
     ethr =  1.00E-06,  avg # of iterations =  1.0

     Threshold (ethr) on eigenvalues was too large:
     Diagonalizing with lowered threshold

     Davidson diagonalization with overlap
     ethr =  6.51E-09,  avg # of iterations =  3.0

     total cpu time spent up to now is       15.3 secs

     total energy              =     -17.33754458 Ry
     estimated scf accuracy    <       0.00000058 Ry

     iteration #  2     ecut=    80.00 Ry     beta= 0.15
     Davidson diagonalization with overlap
     ethr =  7.27E-09,  avg # of iterations =  2.7

     total cpu time spent up to now is       15.5 secs

     total energy              =     -17.33754511 Ry
     estimated scf accuracy    <       0.00000002 Ry

     iteration #  3     ecut=    80.00 Ry     beta= 0.15
     Davidson diagonalization with overlap
     ethr =  2.34E-10,  avg # of iterations =  2.9

     total cpu time spent up to now is       15.7 secs

     total energy              =     -17.33754511 Ry
     estimated scf accuracy    <       0.00000002 Ry

     iteration #  4     ecut=    80.00 Ry     beta= 0.15
     Davidson diagonalization with overlap
     ethr =  2.34E-10,  avg # of iterations =  1.3

     total cpu time spent up to now is       15.8 secs

     total energy              =     -17.33754511 Ry
     estimated scf accuracy    <          3.2E-09 Ry

     iteration #  5     ecut=    80.00 Ry     beta= 0.15
     Davidson diagonalization with overlap
     ethr =  3.96E-11,  avg # of iterations =  2.5

     total cpu time spent up to now is       16.1 secs

     total energy              =     -17.33754511 Ry
     estimated scf accuracy    <          5.0E-09 Ry

     iteration #  6     ecut=    80.00 Ry     beta= 0.15
     Davidson diagonalization with overlap
     ethr =  3.96E-11,  avg # of iterations =  1.0

     total cpu time spent up to now is       16.2 secs

     total energy              =     -17.33754511 Ry
     estimated scf accuracy    <          2.8E-09 Ry

     iteration #  7     ecut=    80.00 Ry     beta= 0.15
     Davidson diagonalization with overlap
     ethr =  3.53E-11,  avg # of iterations =  2.0

     total cpu time spent up to now is       16.4 secs

     total energy              =     -17.33754511 Ry
     estimated scf accuracy    <          5.3E-12 Ry

     iteration #  8     ecut=    80.00 Ry     beta= 0.15
     Davidson diagonalization with overlap
     ethr =  1.00E-13,  avg # of iterations =  5.2

     total cpu time spent up to now is       16.7 secs

     total energy              =     -17.33754511 Ry
     estimated scf accuracy    <          9.7E-11 Ry

     iteration #  9     ecut=    80.00 Ry     beta= 0.15
     Davidson diagonalization with overlap
     ethr =  1.00E-13,  avg # of iterations =  2.1

     total cpu time spent up to now is       16.9 secs

     total energy              =     -17.33754511 Ry
     estimated scf accuracy    <          1.7E-10 Ry

     iteration # 10     ecut=    80.00 Ry     beta= 0.15
     Davidson diagonalization with overlap
     ethr =  1.00E-13,  avg # of iterations =  3.5

     total cpu time spent up to now is       17.2 secs

     total energy              =     -17.33754511 Ry
     estimated scf accuracy    <          1.2E-12 Ry

     iteration # 11     ecut=    80.00 Ry     beta= 0.15
     Davidson diagonalization with overlap
     ethr =  1.00E-13,  avg # of iterations =  1.0

     total cpu time spent up to now is       17.3 secs

     total energy              =     -17.33754511 Ry
     estimated scf accuracy    <          1.2E-12 Ry

     iteration # 12     ecut=    80.00 Ry     beta= 0.15
     Davidson diagonalization with overlap
     ethr =  1.00E-13,  avg # of iterations =  1.0

     total cpu time spent up to now is       17.5 secs

     End of self-consistent calculation

          k =-0.0639 0.0639 0.0639 (  3707 PWs)   bands (ev):

    -7.7778   4.5575   5.2647   5.2647

          k =-0.1917 0.1917-0.0639 (  3688 PWs)   bands (ev):

    -7.5399   2.8677   4.5249   5.1409

          k =-0.3196 0.3196-0.1917 (  3690 PWs)   bands (ev):

    -6.9848   0.6801   3.9813   4.6825

          k =-0.4474 0.4474-0.3196 (  3699 PWs)   bands (ev):

    -6.2901  -1.0389   3.7151   4.2587

          k = 0.4474-0.4474 0.5752 (  3685 PWs)   bands (ev):

    -6.0073  -1.5855   3.7430   4.0395

          k = 0.3196-0.3196 0.4474 (  3690 PWs)   bands (ev):

    -6.5131  -0.5562   4.0409   4.0860

          k = 0.1917-0.1917 0.3196 (  3682 PWs)   bands (ev):

    -7.1984   1.3881   4.3992   4.5313

          k = 0.0639-0.0639 0.1917 (  3691 PWs)   bands (ev):

    -7.6577   3.6349   4.8891   4.9846

          k =-0.0639 0.3196 0.0639 (  3680 PWs)   bands (ev):

    -7.4208   2.6037   4.3480   4.3802

          k =-0.1917 0.4474-0.0639 (  3679 PWs)   bands (ev):

    -6.9700   1.1189   3.3701   4.1111

          k =-0.3196 0.5752-0.1917 (  3677 PWs)   bands (ev):

    -6.3026  -0.5431   2.7794   3.7078

          k = 0.5752-0.3196 0.7031 (  3684 PWs)   bands (ev):

    -5.8177  -1.4733   2.4537   3.6128

          k = 0.4474-0.1917 0.5752 (  3684 PWs)   bands (ev):

    -6.0927  -0.9656   2.4139   3.8938

          k = 0.3196-0.0639 0.4474 (  3687 PWs)   bands (ev):

    -6.7664   0.5212   2.8150   4.3966

          k = 0.1917 0.0639 0.3196 (  3682 PWs)   bands (ev):

    -7.3078   1.9910   3.9542   4.7578

          k =-0.0639 0.5752 0.0639 (  3657 PWs)   bands (ev):

    -6.6344   0.5587   3.2015   3.3141

          k =-0.1917 0.7031-0.0639 (  3679 PWs)   bands (ev):

    -6.0590  -0.5235   2.4165   2.9628

          k = 0.7031-0.1917 0.8309 (  3684 PWs)   bands (ev):

    -5.5262  -1.3404   1.5658   2.9242

          k = 0.5752-0.0639 0.7031 (  3681 PWs)   bands (ev):

    -5.5695  -1.2633   1.2219   3.2732

          k = 0.4474 0.0639 0.5752 (  3684 PWs)   bands (ev):

    -6.1259  -0.5963   1.8302   3.8588

          k = 0.3196 0.1917 0.4474 (  3682 PWs)   bands (ev):

    -6.6788   0.0226   3.4120   4.2885

          k =-0.0639 0.8309 0.0639 (  3682 PWs)   bands (ev):

    -5.6297  -1.1841   2.4760   2.6688

          k = 0.8309-0.0639 0.9587 (  3688 PWs)   bands (ev):

    -5.2613  -1.6433   1.9475   2.4459

          k = 0.7031 0.0639 0.8309 (  3692 PWs)   bands (ev):

    -5.2947  -1.5296   1.2436   2.7735

          k = 0.5752 0.1917 0.7031 (  3678 PWs)   bands (ev):

    -5.6529  -1.4035   1.7178   3.3862

          k = 0.4474 0.3196 0.5752 (  3696 PWs)   bands (ev):

    -6.0437  -1.3561   3.1817   3.9516

          k =-0.0639-0.9587 0.0639 (  3679 PWs)   bands (ev):

    -5.2776  -1.6888   2.3272   2.5353

          k =-0.1917-0.8309-0.0639 (  3679 PWs)   bands (ev):

    -5.5861  -1.2093   2.1088   2.6171

          k =-0.3196-0.7031-0.1917 (  3681 PWs)   bands (ev):

    -5.8958  -1.0017   2.1240   3.2329

          k =-0.0639-0.7031 0.0639 (  3678 PWs)   bands (ev):

    -6.1305  -0.3835   2.7703   2.9316

          k =-0.1917-0.5752-0.0639 (  3672 PWs)   bands (ev):

    -6.5429   0.2734   2.8459   3.4754

          k =-0.0639-0.4474 0.0639 (  3667 PWs)   bands (ev):

    -7.0747   1.5673   3.7516   3.7981

          k =-0.1917 0.1917 0.1917 (  3689 PWs)   bands (ev):

    -7.4247   2.1798   4.8490   4.8490

          k =-0.3196 0.3196 0.0639 (  3684 PWs)   bands (ev):

    -7.0863   1.2483   3.3824   4.8365

          k =-0.4474 0.4474-0.0639 (  3686 PWs)   bands (ev):

    -6.4771  -0.0702   2.2750   4.3389

          k = 0.4474-0.4474 0.8309 (  3685 PWs)   bands (ev):

    -5.8625  -1.2638   2.0364   3.8022

          k = 0.3196-0.3196 0.7031 (  3684 PWs)   bands (ev):

    -5.8509  -1.2913   2.3217   3.4846

          k = 0.1917-0.1917 0.5752 (  3674 PWs)   bands (ev):

    -6.4595  -0.0762   2.9701   3.4809

          k =-0.1917 0.4474 0.1917 (  3683 PWs)   bands (ev):

    -6.8706   0.6280   3.7747   3.9180

          k =-0.3196 0.5752 0.0639 (  3687 PWs)   bands (ev):

    -6.3677  -0.1543   2.3272   3.7103

          k = 0.5752-0.3196 0.9587 (  3682 PWs)   bands (ev):

    -5.7531  -1.0293   1.5234   3.1617

          k = 0.4474-0.1917 0.8309 (  3683 PWs)   bands (ev):

    -5.5003  -1.4025   1.4941   2.8541

          k = 0.3196-0.0639 0.7031 (  3683 PWs)   bands (ev):

    -5.9263  -0.7616   1.9534   3.0295

          k =-0.1917 0.7031 0.1917 (  3685 PWs)   bands (ev):

    -6.0004  -0.7169   2.2735   3.1288

          k = 0.7031-0.1917 1.0865 (  3687 PWs)   bands (ev):

    -5.5104  -1.2651   1.7098   2.4974

          k = 0.5752-0.0639 0.9587 (  3688 PWs)   bands (ev):

    -5.2211  -1.5221   1.3943   2.0230

          k = 0.4474 0.0639 0.8309 (  3692 PWs)   bands (ev):

    -5.4228  -1.3477   1.3815   2.4882

          k =-0.1917-1.0865 0.1917 (  3683 PWs)   bands (ev):

    -5.2696  -1.6017   1.5094   2.7595

          k =-0.3196-0.9587 0.0639 (  3691 PWs)   bands (ev):

    -5.2379  -1.5744   1.5961   2.2033

          k =-0.1917-0.8309 0.1917 (  3682 PWs)   bands (ev):

    -5.5618  -1.2601   1.7704   2.8844

          k =-0.3196 0.3196 0.3196 (  3687 PWs)   bands (ev):

    -6.7886   0.0232   4.4126   4.4126

          k =-0.4474 0.4474 0.1917 (  3687 PWs)   bands (ev):

    -6.4103  -0.5292   2.9160   4.3150

          k = 0.4474-0.4474 1.0865 (  3691 PWs)   bands (ev):

    -5.8461  -0.9783   1.4436   3.7425

          k = 0.3196-0.3196 0.9587 (  3682 PWs)   bands (ev):

    -5.4084  -1.4305   1.1148   3.1817

          k =-0.3196 0.5752 0.3196 (  3699 PWs)   bands (ev):

    -6.1858  -1.0035   3.2059   3.7615

          k = 0.5752-0.3196 1.2144 (  3670 PWs)   bands (ev):

    -5.7697  -1.2576   1.9313   3.3181

          k = 0.4474-0.1917 1.0865 (  3690 PWs)   bands (ev):

    -5.3459  -1.4410   1.2055   2.6158

          k =-0.3196-1.2144 0.3196 (  3681 PWs)   bands (ev):

    -5.5700  -1.4166   1.5701   3.2854

          k =-0.4474 0.4474 0.4474 (  3687 PWs)   bands (ev):

    -6.1437  -1.4160   4.1641   4.1641

          k = 0.4474-0.4474 1.3422 (  3685 PWs)   bands (ev):

    -5.9113  -1.5212   2.8900   3.9090

     highest occupied level (ev):     5.2647

!    total energy              =     -17.33754511 Ry
     estimated scf accuracy    <          3.2E-13 Ry

     The total energy is the sum of the following terms:
     one-electron contribution =       3.24971675 Ry
     hartree contribution      =       1.48393190 Ry
     xc contribution           =      -4.84744854 Ry
     ewald contribution        =     -17.22374523 Ry

     convergence has been achieved in  12 iterations


     Computing stress (Cartesian axis) and pressure

          total   stress  (Ry/bohr**3)                   (kbar)     P=       -0.01
  -0.00000009   0.00000000   0.00000000           -0.01        0.00        0.00
   0.00000000  -0.00000009  -0.00000000            0.00       -0.01       -0.00
   0.00000000  -0.00000000  -0.00000009            0.00       -0.00       -0.01

     Energy error            =      5.9E-07 Ry
     Gradient error          =      0.0E+00 Ry/Bohr
     Cell gradient error     =      1.3E-02 kbar
ibrav =      2
 celldm(1) =     10.44740196
Input lattice vectors:
    -0.48893951     0.00000000     0.48893951
     0.00000000     0.48893951     0.48893951
    -0.48893951     0.48893951     0.00000000
New lattice vectors in INITIAL alat:
    -0.48893951     0.00000000     0.48893951
     0.00000000     0.48893951     0.48893951
    -0.48893951     0.48893951     0.00000000
New lattice vectors in NEW alat (for information only):
    -0.50000000     0.00000000     0.50000000
     0.00000000     0.50000000     0.50000000
    -0.50000000     0.50000000     0.00000000
Discrepancy in bohr =     0.000000    0.000000    0.000000

     bfgs converged in   5 scf cycles and   4 bfgs steps
     (criteria: energy <  1.0E-06 Ry, force <  1.0E-05 Ry/Bohr, cell <  5.0E-02 kbar)

     End of BFGS Geometry Optimization

     Final enthalpy           =     -17.3375451106 Ry

     File ./work/GaAs.bfgs deleted, as requested
Begin final coordinates
     new unit-cell volume =    285.07880 a.u.^3 (    42.24432 Ang^3 )
     density =      5.65437 g/cm^3

CELL_PARAMETERS (alat= 10.68373672)
  -0.488939508   0.000000000   0.488939508
   0.000000000   0.488939508   0.488939508
  -0.488939508   0.488939508   0.000000000

ATOMIC_POSITIONS (crystal)
Ga            0.0000000000        0.0000000000        0.0000000000    0   0   0
As            0.2500000000        0.2500000000        0.2500000000    0   0   0
End final coordinates



     Writing config-only to output data dir ./work/GaAs.save/

[...]
        k(   34) = (  -0.3195692   0.3195692   0.0639138), wk =   0.0234375
        k(   35) = (  -0.4473969   0.4473969  -0.0639138), wk =   0.0234375
        k(   36) = (   0.4473969  -0.4473969   0.8308799), wk =   0.0234375
        k(   37) = (   0.3195692  -0.3195692   0.7030522), wk =   0.0234375
        k(   38) = (   0.1917415  -0.1917415   0.5752245), wk =   0.0234375
        k(   39) = (  -0.1917415   0.4473969   0.1917415), wk =   0.0234375
        k(   40) = (  -0.3195692   0.5752245   0.0639138), wk =   0.0468750
        k(   41) = (   0.5752245  -0.3195692   0.9587076), wk =   0.0468750
        k(   42) = (   0.4473969  -0.1917415   0.8308799), wk =   0.0468750
        k(   43) = (   0.3195692  -0.0639138   0.7030522), wk =   0.0468750
        k(   44) = (  -0.1917415   0.7030522   0.1917415), wk =   0.0234375
        k(   45) = (   0.7030522  -0.1917415   1.0865352), wk =   0.0468750
        k(   46) = (   0.5752245  -0.0639138   0.9587076), wk =   0.0468750
        k(   47) = (   0.4473969   0.0639138   0.8308799), wk =   0.0468750
        k(   48) = (  -0.1917415  -1.0865352   0.1917415), wk =   0.0234375
        k(   49) = (  -0.3195692  -0.9587076   0.0639138), wk =   0.0468750
        k(   50) = (  -0.1917415  -0.8308799   0.1917415), wk =   0.0234375
        k(   51) = (  -0.3195692   0.3195692   0.3195692), wk =   0.0078125
        k(   52) = (  -0.4473969   0.4473969   0.1917415), wk =   0.0234375
        k(   53) = (   0.4473969  -0.4473969   1.0865352), wk =   0.0234375
        k(   54) = (   0.3195692  -0.3195692   0.9587076), wk =   0.0234375
        k(   55) = (  -0.3195692   0.5752245   0.3195692), wk =   0.0234375
        k(   56) = (   0.5752245  -0.3195692   1.2143629), wk =   0.0468750
        k(   57) = (   0.4473969  -0.1917415   1.0865352), wk =   0.0468750
        k(   58) = (  -0.3195692  -1.2143629   0.3195692), wk =   0.0234375
        k(   59) = (  -0.4473969   0.4473969   0.4473969), wk =   0.0078125
        k(   60) = (   0.4473969  -0.4473969   1.3421906), wk =   0.0234375

     Dense  grid:    27581 G-vectors     FFT dimensions: (  45,  45,  45)

     Estimated max dynamical RAM per process >      13.36 MB

     Estimated total dynamical RAM >     267.22 MB

     Initial potential from superposition of free atoms

     starting charge       6.0000, renormalised to       8.0000
     Starting wfcs are   18 randomized atomic wfcs

     total cpu time spent up to now is       17.9 secs

     Self-consistent Calculation

     iteration #  1     ecut=    80.00 Ry     beta= 0.15
     Davidson diagonalization with overlap
     ethr =  1.00E-06,  avg # of iterations =  6.0

     total cpu time spent up to now is       18.3 secs

     total energy              =     -17.36085528 Ry
     estimated scf accuracy    <       0.12076171 Ry

     iteration #  2     ecut=    80.00 Ry     beta= 0.15
     Davidson diagonalization with overlap
     ethr =  1.51E-03,  avg # of iterations =  1.0

     total cpu time spent up to now is       18.5 secs

     total energy              =     -17.32760807 Ry
     estimated scf accuracy    <       0.07457700 Ry

     iteration #  3     ecut=    80.00 Ry     beta= 0.15
     Davidson diagonalization with overlap
     ethr =  9.32E-04,  avg # of iterations =  2.0

     total cpu time spent up to now is       18.6 secs

     total energy              =     -17.33798128 Ry
     estimated scf accuracy    <       0.00501144 Ry

     iteration #  4     ecut=    80.00 Ry     beta= 0.15
     Davidson diagonalization with overlap
     ethr =  6.26E-05,  avg # of iterations =  1.1

     total cpu time spent up to now is       18.8 secs

     total energy              =     -17.33726749 Ry
     estimated scf accuracy    <       0.00264063 Ry

     iteration #  5     ecut=    80.00 Ry     beta= 0.15
     Davidson diagonalization with overlap
     ethr =  3.30E-05,  avg # of iterations =  2.0

     total cpu time spent up to now is       19.0 secs

     total energy              =     -17.33801661 Ry
     estimated scf accuracy    <       0.00115876 Ry

     iteration #  6     ecut=    80.00 Ry     beta= 0.15
     Davidson diagonalization with overlap
     ethr =  1.45E-05,  avg # of iterations =  1.0

     total cpu time spent up to now is       19.1 secs

     total energy              =     -17.33793245 Ry
     estimated scf accuracy    <       0.00123907 Ry

     iteration #  7     ecut=    80.00 Ry     beta= 0.15
     Davidson diagonalization with overlap
     ethr =  1.45E-05,  avg # of iterations =  1.0

     total cpu time spent up to now is       19.3 secs

     total energy              =     -17.33797086 Ry
     estimated scf accuracy    <       0.00106410 Ry

     iteration #  8     ecut=    80.00 Ry     beta= 0.15
     Davidson diagonalization with overlap
     ethr =  1.33E-05,  avg # of iterations =  1.0

     total cpu time spent up to now is       19.4 secs

     total energy              =     -17.33928648 Ry
     estimated scf accuracy    <       0.00115827 Ry

     iteration #  9     ecut=    80.00 Ry     beta= 0.15
     Davidson diagonalization with overlap
     ethr =  1.33E-05,  avg # of iterations =  2.0

     negative rho (up, down):  6.301E-06 0.000E+00

     total cpu time spent up to now is       19.6 secs

     total energy              =     -17.34050163 Ry
     estimated scf accuracy    <       0.00546935 Ry

     iteration # 10     ecut=    80.00 Ry     beta= 0.15
     Davidson diagonalization with overlap
     ethr =  1.33E-05,  avg # of iterations =  1.3

     negative rho (up, down):  1.365E-05 0.000E+00

     total cpu time spent up to now is       19.8 secs

     total energy              =     -17.34112392 Ry
     estimated scf accuracy    <       0.00839146 Ry

     iteration # 11     ecut=    80.00 Ry     beta= 0.15
     Davidson diagonalization with overlap
     ethr =  1.33E-05,  avg # of iterations =  1.0

     total cpu time spent up to now is       19.9 secs

     total energy              =     -17.33549155 Ry
     estimated scf accuracy    <       0.00993007 Ry

     iteration # 12     ecut=    80.00 Ry     beta= 0.15
     Davidson diagonalization with overlap
     ethr =  1.33E-05,  avg # of iterations =  3.2

     total cpu time spent up to now is       20.2 secs

     total energy              =     -17.33752464 Ry
     estimated scf accuracy    <       0.00007786 Ry

     iteration # 13     ecut=    80.00 Ry     beta= 0.15
     Davidson diagonalization with overlap
     ethr =  9.73E-07,  avg # of iterations =  3.0

     total cpu time spent up to now is       20.4 secs

     total energy              =     -17.33789610 Ry
     estimated scf accuracy    <       0.00013343 Ry

     iteration # 14     ecut=    80.00 Ry     beta= 0.15
     Davidson diagonalization with overlap
     ethr =  9.73E-07,  avg # of iterations =  3.0

     total cpu time spent up to now is       20.7 secs

     total energy              =     -17.33730724 Ry
     estimated scf accuracy    <       0.00131591 Ry

     iteration # 15     ecut=    80.00 Ry     beta= 0.15
     Davidson diagonalization with overlap
     ethr =  9.73E-07,  avg # of iterations =  3.4

     total cpu time spent up to now is       20.9 secs

     total energy              =     -17.33753915 Ry
     estimated scf accuracy    <       0.00000014 Ry

     iteration # 16     ecut=    80.00 Ry     beta= 0.15
     Davidson diagonalization with overlap
     ethr =  1.73E-09,  avg # of iterations =  6.4

     total cpu time spent up to now is       21.3 secs

     total energy              =     -17.33754022 Ry
     estimated scf accuracy    <       0.00000013 Ry

     iteration # 17     ecut=    80.00 Ry     beta= 0.15
     Davidson diagonalization with overlap
     ethr =  1.68E-09,  avg # of iterations =  2.4

     total cpu time spent up to now is       21.5 secs

     total energy              =     -17.33754025 Ry
     estimated scf accuracy    <       0.00000010 Ry

     iteration # 18     ecut=    80.00 Ry     beta= 0.15
     Davidson diagonalization with overlap
     ethr =  1.24E-09,  avg # of iterations =  2.0

     total cpu time spent up to now is       21.7 secs

     total energy              =     -17.33754027 Ry
     estimated scf accuracy    <       0.00000002 Ry

     iteration # 19     ecut=    80.00 Ry     beta= 0.15
     Davidson diagonalization with overlap
     ethr =  3.10E-10,  avg # of iterations =  1.0

     total cpu time spent up to now is       21.8 secs

     total energy              =     -17.33754060 Ry
     estimated scf accuracy    <       0.00000001 Ry

     iteration # 20     ecut=    80.00 Ry     beta= 0.15
     Davidson diagonalization with overlap
     ethr =  1.64E-10,  avg # of iterations =  5.8

     total cpu time spent up to now is       22.2 secs

     total energy              =     -17.33753982 Ry
     estimated scf accuracy    <       0.00000191 Ry

     iteration # 21     ecut=    80.00 Ry     beta= 0.15
     Davidson diagonalization with overlap
     ethr =  1.64E-10,  avg # of iterations =  6.1

     total cpu time spent up to now is       22.5 secs

     total energy              =     -17.33754037 Ry
     estimated scf accuracy    <       0.00000009 Ry

     iteration # 22     ecut=    80.00 Ry     beta= 0.15
     Davidson diagonalization with overlap
     ethr =  1.64E-10,  avg # of iterations =  2.8

     total cpu time spent up to now is       22.8 secs

     total energy              =     -17.33754018 Ry
     estimated scf accuracy    <       0.00000030 Ry

     iteration # 23     ecut=    80.00 Ry     beta= 0.15
     Davidson diagonalization with overlap
     ethr =  1.64E-10,  avg # of iterations =  4.8

     total cpu time spent up to now is       23.1 secs

     total energy              =     -17.33754026 Ry
     estimated scf accuracy    <       0.00000010 Ry

     iteration # 24     ecut=    80.00 Ry     beta= 0.15
     Davidson diagonalization with overlap
     ethr =  1.64E-10,  avg # of iterations =  3.2

     total cpu time spent up to now is       23.3 secs

     total energy              =     -17.33754028 Ry
     estimated scf accuracy    <          1.1E-09 Ry

     iteration # 25     ecut=    80.00 Ry     beta= 0.15
     Davidson diagonalization with overlap
     ethr =  1.32E-11,  avg # of iterations =  2.0

     total cpu time spent up to now is       23.5 secs

     total energy              =     -17.33754028 Ry
     estimated scf accuracy    <          1.6E-10 Ry

     iteration # 26     ecut=    80.00 Ry     beta= 0.15
     Davidson diagonalization with overlap
     ethr =  2.02E-12,  avg # of iterations =  2.1

     total cpu time spent up to now is       23.7 secs

     End of self-consistent calculation

          k =-0.0639 0.0639 0.0639 (  3467 PWs)   bands (ev):

    -7.7777   4.5575   5.2647   5.2647

          k =-0.1917 0.1917-0.0639 (  3461 PWs)   bands (ev):

    -7.5398   2.8678   4.5249   5.1409

          k =-0.3196 0.3196-0.1917 (  3445 PWs)   bands (ev):

    -6.9847   0.6801   3.9813   4.6825

          k =-0.4474 0.4474-0.3196 (  3446 PWs)   bands (ev):

    -6.2901  -1.0389   3.7151   4.2588

          k = 0.4474-0.4474 0.5752 (  3445 PWs)   bands (ev):

    -6.0072  -1.5855   3.7430   4.0395

          k = 0.3196-0.3196 0.4474 (  3452 PWs)   bands (ev):

    -6.5131  -0.5562   4.0409   4.0860

          k = 0.1917-0.1917 0.3196 (  3453 PWs)   bands (ev):

    -7.1984   1.3881   4.3992   4.5313

          k = 0.0639-0.0639 0.1917 (  3461 PWs)   bands (ev):

    -7.6577   3.6349   4.8891   4.9846

          k =-0.0639 0.3196 0.0639 (  3468 PWs)   bands (ev):

    -7.4208   2.6037   4.3480   4.3802

          k =-0.1917 0.4474-0.0639 (  3457 PWs)   bands (ev):

    -6.9699   1.1189   3.3701   4.1111

          k =-0.3196 0.5752-0.1917 (  3449 PWs)   bands (ev):

    -6.3026  -0.5431   2.7794   3.7078

          k = 0.5752-0.3196 0.7031 (  3443 PWs)   bands (ev):

    -5.8177  -1.4733   2.4537   3.6128

          k = 0.4474-0.1917 0.5752 (  3441 PWs)   bands (ev):

    -6.0927  -0.9656   2.4139   3.8938

          k = 0.3196-0.0639 0.4474 (  3451 PWs)   bands (ev):

    -6.7664   0.5212   2.8150   4.3966

          k = 0.1917 0.0639 0.3196 (  3465 PWs)   bands (ev):

    -7.3078   1.9910   3.9542   4.7578

          k =-0.0639 0.5752 0.0639 (  3457 PWs)   bands (ev):

    -6.6344   0.5587   3.2015   3.3141

          k =-0.1917 0.7031-0.0639 (  3446 PWs)   bands (ev):

    -6.0590  -0.5235   2.4165   2.9628

          k = 0.7031-0.1917 0.8309 (  3445 PWs)   bands (ev):

    -5.5262  -1.3404   1.5658   2.9242

          k = 0.5752-0.0639 0.7031 (  3446 PWs)   bands (ev):

    -5.5694  -1.2633   1.2219   3.2732

          k = 0.4474 0.0639 0.5752 (  3447 PWs)   bands (ev):

    -6.1259  -0.5962   1.8302   3.8588

          k = 0.3196 0.1917 0.4474 (  3450 PWs)   bands (ev):

    -6.6788   0.0226   3.4120   4.2885

          k =-0.0639 0.8309 0.0639 (  3441 PWs)   bands (ev):

    -5.6297  -1.1841   2.4760   2.6688

          k = 0.8309-0.0639 0.9587 (  3429 PWs)   bands (ev):

    -5.2613  -1.6433   1.9475   2.4459

          k = 0.7031 0.0639 0.8309 (  3435 PWs)   bands (ev):

    -5.2946  -1.5296   1.2436   2.7735

          k = 0.5752 0.1917 0.7031 (  3444 PWs)   bands (ev):

    -5.6529  -1.4035   1.7178   3.3862

          k = 0.4474 0.3196 0.5752 (  3449 PWs)   bands (ev):

    -6.0436  -1.3561   3.1817   3.9516

          k =-0.0639-0.9587 0.0639 (  3430 PWs)   bands (ev):

    -5.2776  -1.6888   2.3272   2.5353

          k =-0.1917-0.8309-0.0639 (  3429 PWs)   bands (ev):

    -5.5861  -1.2093   2.1088   2.6171

          k =-0.3196-0.7031-0.1917 (  3448 PWs)   bands (ev):

    -5.8958  -1.0017   2.1240   3.2329

          k =-0.0639-0.7031 0.0639 (  3447 PWs)   bands (ev):

    -6.1305  -0.3835   2.7703   2.9316

          k =-0.1917-0.5752-0.0639 (  3459 PWs)   bands (ev):

    -6.5428   0.2734   2.8459   3.4754

          k =-0.0639-0.4474 0.0639 (  3459 PWs)   bands (ev):

    -7.0746   1.5673   3.7516   3.7981

          k =-0.1917 0.1917 0.1917 (  3467 PWs)   bands (ev):

    -7.4247   2.1798   4.8490   4.8490

          k =-0.3196 0.3196 0.0639 (  3449 PWs)   bands (ev):

    -7.0862   1.2483   3.3824   4.8365

          k =-0.4474 0.4474-0.0639 (  3456 PWs)   bands (ev):

    -6.4771  -0.0702   2.2750   4.3389

          k = 0.4474-0.4474 0.8309 (  3445 PWs)   bands (ev):

    -5.8625  -1.2638   2.0364   3.8022

          k = 0.3196-0.3196 0.7031 (  3444 PWs)   bands (ev):

    -5.8509  -1.2913   2.3217   3.4846

          k = 0.1917-0.1917 0.5752 (  3457 PWs)   bands (ev):

    -6.4595  -0.0762   2.9701   3.4809

          k =-0.1917 0.4474 0.1917 (  3454 PWs)   bands (ev):

    -6.8705   0.6280   3.7747   3.9180

          k =-0.3196 0.5752 0.0639 (  3455 PWs)   bands (ev):

    -6.3676  -0.1543   2.3272   3.7103

          k = 0.5752-0.3196 0.9587 (  3449 PWs)   bands (ev):

    -5.7531  -1.0293   1.5234   3.1617

          k = 0.4474-0.1917 0.8309 (  3437 PWs)   bands (ev):

    -5.5003  -1.4025   1.4941   2.8541

          k = 0.3196-0.0639 0.7031 (  3442 PWs)   bands (ev):

    -5.9262  -0.7616   1.9534   3.0295

          k =-0.1917 0.7031 0.1917 (  3447 PWs)   bands (ev):

    -6.0003  -0.7169   2.2735   3.1288

          k = 0.7031-0.1917 1.0865 (  3438 PWs)   bands (ev):

    -5.5103  -1.2651   1.7098   2.4974

          k = 0.5752-0.0639 0.9587 (  3427 PWs)   bands (ev):

    -5.2210  -1.5221   1.3943   2.0230

          k = 0.4474 0.0639 0.8309 (  3435 PWs)   bands (ev):

    -5.4227  -1.3477   1.3815   2.4882

          k =-0.1917-1.0865 0.1917 (  3436 PWs)   bands (ev):

    -5.2695  -1.6017   1.5094   2.7595

          k =-0.3196-0.9587 0.0639 (  3425 PWs)   bands (ev):

    -5.2379  -1.5744   1.5961   2.2033

          k =-0.1917-0.8309 0.1917 (  3439 PWs)   bands (ev):

    -5.5617  -1.2601   1.7704   2.8844

          k =-0.3196 0.3196 0.3196 (  3440 PWs)   bands (ev):

    -6.7886   0.0232   4.4126   4.4126

          k =-0.4474 0.4474 0.1917 (  3452 PWs)   bands (ev):

    -6.4102  -0.5292   2.9160   4.3150

          k = 0.4474-0.4474 1.0865 (  3441 PWs)   bands (ev):

    -5.8460  -0.9783   1.4436   3.7425

          k = 0.3196-0.3196 0.9587 (  3442 PWs)   bands (ev):

    -5.4083  -1.4305   1.1148   3.1817

          k =-0.3196 0.5752 0.3196 (  3463 PWs)   bands (ev):

    -6.1857  -1.0035   3.2059   3.7615

          k = 0.5752-0.3196 1.2144 (  3438 PWs)   bands (ev):

    -5.7697  -1.2576   1.9313   3.3181

          k = 0.4474-0.1917 1.0865 (  3440 PWs)   bands (ev):

    -5.3459  -1.4410   1.2055   2.6158

          k =-0.3196-1.2144 0.3196 (  3442 PWs)   bands (ev):

    -5.5699  -1.4166   1.5701   3.2854

          k =-0.4474 0.4474 0.4474 (  3435 PWs)   bands (ev):

    -6.1437  -1.4160   4.1641   4.1641

          k = 0.4474-0.4474 1.3422 (  3446 PWs)   bands (ev):

    -5.9112  -1.5212   2.8900   3.9090

     highest occupied level (ev):     5.2647

!    total energy              =     -17.33754028 Ry
     estimated scf accuracy    <          8.2E-13 Ry

     The total energy is the sum of the following terms:
     one-electron contribution =       3.24972285 Ry
     hartree contribution      =       1.48393036 Ry
     xc contribution           =      -4.84744826 Ry
     ewald contribution        =     -17.22374523 Ry

     convergence has been achieved in  26 iterations


     Computing stress (Cartesian axis) and pressure

          total   stress  (Ry/bohr**3)                   (kbar)     P=       -0.03
  -0.00000021  -0.00000000  -0.00000000           -0.03       -0.00       -0.00
  -0.00000000  -0.00000021  -0.00000000           -0.00       -0.03       -0.00
  -0.00000000  -0.00000000  -0.00000021           -0.00       -0.00       -0.03


     Writing all to output data dir ./work/GaAs.save/
 
     init_run     :      0.64s CPU      0.69s WALL (       2 calls)
     electrons    :     21.18s CPU     22.03s WALL (       6 calls)
     update_pot   :      0.31s CPU      0.31s WALL (       4 calls)
     stress       :      0.58s CPU      0.59s WALL (       6 calls)

     Called by init_run:
     wfcinit      :      0.43s CPU      0.44s WALL (       2 calls)
     potinit      :      0.05s CPU      0.05s WALL (       2 calls)
     hinit0       :      0.14s CPU      0.17s WALL (       2 calls)

     Called by electrons:
     c_bands      :     18.23s CPU     18.97s WALL (     110 calls)
     sum_band     :      2.81s CPU      2.91s WALL (     110 calls)
     v_of_rho     :      0.05s CPU      0.05s WALL (     115 calls)
     mix_rho      :      0.07s CPU      0.07s WALL (     110 calls)

     Called by c_bands:
     init_us_2    :      0.82s CPU      0.85s WALL (   13680 calls)
     init_us_2:cp :      0.79s CPU      0.82s WALL (   13680 calls)
     cegterg      :     15.86s CPU     16.50s WALL (    6600 calls)

     Called by *egterg:
     cdiaghg      :      0.74s CPU      0.78s WALL (   20945 calls)
     h_psi        :     14.32s CPU     14.90s WALL (   21365 calls)
     g_psi        :      0.07s CPU      0.07s WALL (   14645 calls)

     Called by h_psi:
     h_psi:calbec :      0.53s CPU      0.55s WALL (   21365 calls)
     vloc_psi     :     13.34s CPU     13.88s WALL (   21365 calls)
     add_vuspsi   :      0.30s CPU      0.32s WALL (   21365 calls)

     General routines
     calbec       :      0.50s CPU      0.52s WALL (   21725 calls)
     fft          :      0.05s CPU      0.08s WALL (     362 calls)
     ffts         :      0.01s CPU      0.01s WALL (     110 calls)
     fftw         :     14.36s CPU     14.92s WALL (  185542 calls)
 
     Parallel routines
 
     PWSCF        :     22.87s CPU     23.86s WALL

 
   This run was terminated on:  16:21: 1  30Jan2023            

=------------------------------------------------------------------------------=
   JOB DONE.
=------------------------------------------------------------------------------=
