
     Program PWSCF v.7.1 starts on 30Jan2023 at 18:32:31 

     This program is part of the open-source Quantum ESPRESSO suite
     for quantum simulation of materials; please cite
         "P. Giannozzi et al., J. Phys.:Condens. Matter 21 395502 (2009);
         "P. Giannozzi et al., J. Phys.:Condens. Matter 29 465901 (2017);
         "P. Giannozzi et al., J. Chem. Phys. 152 154105 (2020);
          URL http://www.quantum-espresso.org", 
     in publications or presentations arising from this work. More details at
     http://www.quantum-espresso.org/quote

     Parallel version (MPI), running on    20 processors

     MPI processes distributed on     1 nodes
     115998 MiB available memory on the printing compute node when the environment starts
 
     Waiting for input...
     Reading input from standard input

     Current dimensions of program PWSCF are:
     Max number of different atomic species (ntypx) = 10
     Max number of k-points (npk) =  40000
     Max angular momentum in pseudopotentials (lmaxx) =  4
 
     R & G space division:  proc/nbgrp/npool/nimage =      20
     Subspace diagonalization in iterative solution of the eigenvalue problem:
     a serial algorithm will be used

 
     Parallelization info
     --------------------
     sticks:   dense  smooth     PW     G-vecs:    dense   smooth      PW
     Min          69      69     21                 1690     1690     278
     Max          70      70     22                 1692     1692     280
     Sum        1381    1381    421                33823    33823    5577
 
     Using Slab Decomposition
 


     bravais-lattice index     =            2
     lattice parameter (alat)  =      11.1863  a.u.
     unit-cell volume          =     349.9403 (a.u.)^3
     number of atoms/cell      =            2
     number of atomic types    =            2
     number of electrons       =         8.00
     number of Kohn-Sham states=           32
     kinetic-energy cutoff     =      80.0000  Ry
     charge density cutoff     =     320.0000  Ry
     scf convergence threshold =      1.0E-10
     mixing beta               =       0.1500
     number of iterations used =            8  plain     mixing
     Exchange-correlation= SLA-PZ-NOGX-NOGC
                           (   1   1   0   0   0   0   0)

     celldm(1)=  11.186253  celldm(2)=   0.000000  celldm(3)=   0.000000
     celldm(4)=   0.000000  celldm(5)=   0.000000  celldm(6)=   0.000000

     crystal axes: (cart. coord. in units of alat)
               a(1) = (  -0.500000   0.000000   0.500000 )  
               a(2) = (   0.000000   0.500000   0.500000 )  
               a(3) = (  -0.500000   0.500000   0.000000 )  

     reciprocal axes: (cart. coord. in units 2 pi/alat)
               b(1) = ( -1.000000 -1.000000  1.000000 )  
               b(2) = (  1.000000  1.000000  1.000000 )  
               b(3) = ( -1.000000  1.000000 -1.000000 )  


     PseudoPot. # 1 for In read from file:
     ../../pseudo/In.pz-hgh.upf
     MD5 check sum: 6872a669b76e2059a5c804d9a9b24c5c
     Pseudo is Norm-conserving, Zval =  3.0
     Generated in analytical, separable form
     Using radial grid of 1241 points,  6 beta functions with: 
                l(1) =   0
                l(2) =   0
                l(3) =   0
                l(4) =   1
                l(5) =   1
                l(6) =   2

     PseudoPot. # 2 for As read from file:
     ../../pseudo/As.pz-hgh.upf
     MD5 check sum: 8bce9ee3be4f31c0b3268c76e624ca74
     Pseudo is Norm-conserving, Zval =  5.0
     Generated in analytical, separable form
     Using radial grid of 1209 points,  6 beta functions with: 
                l(1) =   0
                l(2) =   0
                l(3) =   0
                l(4) =   1
                l(5) =   1
                l(6) =   2

     atomic species   valence    mass     pseudopotential
        In             3.00   114.81800     In( 1.00)
        As             5.00    74.92160     As( 1.00)

     24 Sym. Ops. (no inversion) found



   Cartesian axes

     site n.     atom                  positions (alat units)
         1           In  tau(   1) = (   0.0000000   0.0000000   0.0000000  )
         2           As  tau(   2) = (  -0.2500000   0.2500000   0.2500000  )

     number of k points=    60
                       cart. coord. in units 2pi/alat
        k(    1) = (  -0.0625000   0.0625000   0.0625000), wk =   0.0078125
        k(    2) = (  -0.1875000   0.1875000  -0.0625000), wk =   0.0234375
        k(    3) = (  -0.3125000   0.3125000  -0.1875000), wk =   0.0234375
        k(    4) = (  -0.4375000   0.4375000  -0.3125000), wk =   0.0234375
        k(    5) = (   0.4375000  -0.4375000   0.5625000), wk =   0.0234375
        k(    6) = (   0.3125000  -0.3125000   0.4375000), wk =   0.0234375
        k(    7) = (   0.1875000  -0.1875000   0.3125000), wk =   0.0234375
        k(    8) = (   0.0625000  -0.0625000   0.1875000), wk =   0.0234375
        k(    9) = (  -0.0625000   0.3125000   0.0625000), wk =   0.0234375
        k(   10) = (  -0.1875000   0.4375000  -0.0625000), wk =   0.0468750
        k(   11) = (  -0.3125000   0.5625000  -0.1875000), wk =   0.0468750
        k(   12) = (   0.5625000  -0.3125000   0.6875000), wk =   0.0468750
        k(   13) = (   0.4375000  -0.1875000   0.5625000), wk =   0.0468750
        k(   14) = (   0.3125000  -0.0625000   0.4375000), wk =   0.0468750
        k(   15) = (   0.1875000   0.0625000   0.3125000), wk =   0.0468750
        k(   16) = (  -0.0625000   0.5625000   0.0625000), wk =   0.0234375
        k(   17) = (  -0.1875000   0.6875000  -0.0625000), wk =   0.0468750
        k(   18) = (   0.6875000  -0.1875000   0.8125000), wk =   0.0468750
        k(   19) = (   0.5625000  -0.0625000   0.6875000), wk =   0.0468750
        k(   20) = (   0.4375000   0.0625000   0.5625000), wk =   0.0468750
        k(   21) = (   0.3125000   0.1875000   0.4375000), wk =   0.0468750
        k(   22) = (  -0.0625000   0.8125000   0.0625000), wk =   0.0234375
        k(   23) = (   0.8125000  -0.0625000   0.9375000), wk =   0.0468750
        k(   24) = (   0.6875000   0.0625000   0.8125000), wk =   0.0468750
        k(   25) = (   0.5625000   0.1875000   0.6875000), wk =   0.0468750
        k(   26) = (   0.4375000   0.3125000   0.5625000), wk =   0.0468750
        k(   27) = (  -0.0625000  -0.9375000   0.0625000), wk =   0.0234375
        k(   28) = (  -0.1875000  -0.8125000  -0.0625000), wk =   0.0468750
        k(   29) = (  -0.3125000  -0.6875000  -0.1875000), wk =   0.0468750
        k(   30) = (  -0.0625000  -0.6875000   0.0625000), wk =   0.0234375
        k(   31) = (  -0.1875000  -0.5625000  -0.0625000), wk =   0.0468750
        k(   32) = (  -0.0625000  -0.4375000   0.0625000), wk =   0.0234375
        k(   33) = (  -0.1875000   0.1875000   0.1875000), wk =   0.0078125
        k(   34) = (  -0.3125000   0.3125000   0.0625000), wk =   0.0234375
        k(   35) = (  -0.4375000   0.4375000  -0.0625000), wk =   0.0234375
        k(   36) = (   0.4375000  -0.4375000   0.8125000), wk =   0.0234375
        k(   37) = (   0.3125000  -0.3125000   0.6875000), wk =   0.0234375
        k(   38) = (   0.1875000  -0.1875000   0.5625000), wk =   0.0234375
        k(   39) = (  -0.1875000   0.4375000   0.1875000), wk =   0.0234375
        k(   40) = (  -0.3125000   0.5625000   0.0625000), wk =   0.0468750
        k(   41) = (   0.5625000  -0.3125000   0.9375000), wk =   0.0468750
        k(   42) = (   0.4375000  -0.1875000   0.8125000), wk =   0.0468750
        k(   43) = (   0.3125000  -0.0625000   0.6875000), wk =   0.0468750
        k(   44) = (  -0.1875000   0.6875000   0.1875000), wk =   0.0234375
        k(   45) = (   0.6875000  -0.1875000   1.0625000), wk =   0.0468750
        k(   46) = (   0.5625000  -0.0625000   0.9375000), wk =   0.0468750
        k(   47) = (   0.4375000   0.0625000   0.8125000), wk =   0.0468750
        k(   48) = (  -0.1875000  -1.0625000   0.1875000), wk =   0.0234375
        k(   49) = (  -0.3125000  -0.9375000   0.0625000), wk =   0.0468750
        k(   50) = (  -0.1875000  -0.8125000   0.1875000), wk =   0.0234375
        k(   51) = (  -0.3125000   0.3125000   0.3125000), wk =   0.0078125
        k(   52) = (  -0.4375000   0.4375000   0.1875000), wk =   0.0234375
        k(   53) = (   0.4375000  -0.4375000   1.0625000), wk =   0.0234375
        k(   54) = (   0.3125000  -0.3125000   0.9375000), wk =   0.0234375
        k(   55) = (  -0.3125000   0.5625000   0.3125000), wk =   0.0234375
        k(   56) = (   0.5625000  -0.3125000   1.1875000), wk =   0.0468750
        k(   57) = (   0.4375000  -0.1875000   1.0625000), wk =   0.0468750
        k(   58) = (  -0.3125000  -1.1875000   0.3125000), wk =   0.0234375
        k(   59) = (  -0.4375000   0.4375000   0.4375000), wk =   0.0078125
        k(   60) = (   0.4375000  -0.4375000   1.3125000), wk =   0.0234375

     Dense  grid:    33823 G-vectors     FFT dimensions: (  45,  45,  45)

     Estimated max dynamical RAM per process >      11.03 MB

     Estimated total dynamical RAM >     220.62 MB

     Initial potential from superposition of free atoms

     starting charge       6.0000, renormalised to       8.0000
     Starting wfcs are   18 randomized atomic wfcs +   14 random wfcs

     total cpu time spent up to now is        0.7 secs

     Self-consistent Calculation

     iteration #  1     ecut=    80.00 Ry     beta= 0.15
     Davidson diagonalization with overlap
     ethr =  1.00E-02,  avg # of iterations =  6.8

     total cpu time spent up to now is        3.3 secs

     total energy              =     -16.95087670 Ry
     estimated scf accuracy    <       0.13863558 Ry

     iteration #  2     ecut=    80.00 Ry     beta= 0.15
     Davidson diagonalization with overlap
     ethr =  1.73E-03,  avg # of iterations =  1.1

     total cpu time spent up to now is        4.4 secs

     total energy              =     -16.91696579 Ry
     estimated scf accuracy    <       0.08140264 Ry

     iteration #  3     ecut=    80.00 Ry     beta= 0.15
     Davidson diagonalization with overlap
     ethr =  1.02E-03,  avg # of iterations =  1.5

     total cpu time spent up to now is        5.6 secs

     total energy              =     -16.92532899 Ry
     estimated scf accuracy    <       0.00694870 Ry

     iteration #  4     ecut=    80.00 Ry     beta= 0.15
     Davidson diagonalization with overlap
     ethr =  8.69E-05,  avg # of iterations =  3.3

     total cpu time spent up to now is        6.9 secs

     total energy              =     -16.92578056 Ry
     estimated scf accuracy    <       0.00022150 Ry

     iteration #  5     ecut=    80.00 Ry     beta= 0.15
     Davidson diagonalization with overlap
     ethr =  2.77E-06,  avg # of iterations =  5.6

     total cpu time spent up to now is        8.4 secs

     total energy              =     -16.92576480 Ry
     estimated scf accuracy    <       0.00009279 Ry

     iteration #  6     ecut=    80.00 Ry     beta= 0.15
     Davidson diagonalization with overlap
     ethr =  1.16E-06,  avg # of iterations =  1.2

     total cpu time spent up to now is        9.5 secs

     total energy              =     -16.92576854 Ry
     estimated scf accuracy    <       0.00000031 Ry

     iteration #  7     ecut=    80.00 Ry     beta= 0.15
     Davidson diagonalization with overlap
     ethr =  3.90E-09,  avg # of iterations =  6.2

     total cpu time spent up to now is       11.5 secs

     total energy              =     -16.92576857 Ry
     estimated scf accuracy    <       0.00000006 Ry

     iteration #  8     ecut=    80.00 Ry     beta= 0.15
     Davidson diagonalization with overlap
     ethr =  7.24E-10,  avg # of iterations =  1.8

     total cpu time spent up to now is       12.6 secs

     total energy              =     -16.92576857 Ry
     estimated scf accuracy    <          1.3E-09 Ry

     iteration #  9     ecut=    80.00 Ry     beta= 0.15
     Davidson diagonalization with overlap
     ethr =  1.65E-11,  avg # of iterations =  5.5

     total cpu time spent up to now is       14.2 secs

     End of self-consistent calculation

          k =-0.0625 0.0625 0.0625 (  4252 PWs)   bands (ev):

    -7.9614   3.3539   4.1548   4.1548   5.1233   8.2652   8.3342   8.3342
    12.2870  13.7378  13.7378  14.8671  15.6755  15.6755  17.9688  26.7293
    27.0096  27.0096  28.5361  28.5361  29.3265  29.3265  29.7088  29.7630
    31.4472  31.4472  36.2525  38.8339  39.0714  39.0714  39.8069  39.8069

          k =-0.1875 0.1875-0.0625 (  4233 PWs)   bands (ev):

    -7.7654   1.8937   3.5604   4.0444   5.9624   8.3128   8.5355   9.1227
    12.6742  13.0663  13.4914  14.9581  16.3337  17.6404  19.6288  23.4916
    25.0713  25.4136  27.3116  27.8189  29.2488  29.8955  31.5544  31.5628
    33.5154  34.6116  35.3749  35.8266  36.6261  37.6886  37.7099  38.0862

          k =-0.3125 0.3125-0.1875 (  4233 PWs)   bands (ev):

    -7.3170   0.0527   3.0806   3.6544   5.9858   8.9591   9.0479   9.9683
    12.6057  12.9479  13.8841  16.4670  18.8401  20.1351  20.2912  21.8881
    22.1042  22.5096  27.7238  28.1226  29.6620  30.2772  31.0327  31.5914
    32.1622  33.0063  33.2158  35.1183  35.3006  36.6619  37.0722  37.5568

          k =-0.4375 0.4375-0.3125 (  4230 PWs)   bands (ev):

    -6.7835  -1.3714   2.8341   3.2857   5.7731   8.9960   9.0824  11.2325
    13.0817  13.8444  15.1553  16.9224  18.5517  19.1172  20.7067  21.9033
    23.0843  25.4487  27.2080  27.3037  28.3701  28.7318  29.1490  30.2867
    31.0121  32.1276  32.5319  33.6086  33.7202  34.6895  35.6573  36.1019

          k = 0.4375-0.4375 0.5625 (  4231 PWs)   bands (ev):

    -6.5805  -1.8060   2.8508   3.0975   5.7135   8.8371   9.1642  11.4996
    13.6127  15.1227  15.6637  16.4241  16.8924  17.9509  22.4271  23.9872
    24.5099  24.9960  25.6210  26.4131  28.0936  28.7281  28.8467  29.5785
    30.4947  31.2803  32.6746  33.2187  33.3429  34.7800  35.2245  35.6811

          k = 0.3125-0.3125 0.4375 (  4228 PWs)   bands (ev):

    -6.9502  -0.9775   3.1112   3.1489   5.8520   8.8057   9.3391  10.8175
    12.7971  13.6705  14.4501  17.5705  18.8066  19.7611  20.8272  20.8827
    21.8825  24.5155  27.7660  28.3076  28.4199  29.5535  29.5959  30.6597
    30.9369  32.3750  33.0530  33.9650  34.1025  34.8706  36.0885  36.3146

          k = 0.1875-0.1875 0.3125 (  4234 PWs)   bands (ev):

    -7.4878   0.6492   3.4335   3.5373   6.0875   8.4558   9.2916   9.5939
    12.2822  13.4205  13.5289  15.6909  18.1157  18.9557  21.4081  21.8773
    21.9708  23.7267  27.7342  27.7997  29.4068  30.3284  31.7288  32.0725
    32.7209  33.5700  34.3115  35.6858  35.8957  36.6121  37.4717  37.6183

          k = 0.0625-0.0625 0.1875 (  4233 PWs)   bands (ev):

    -7.8622   2.5346   3.8548   3.9218   5.8345   7.9214   8.7563   8.7578
    12.5747  12.9754  13.9040  14.9667  15.8814  16.5552  19.0122  25.1682
    25.2108  26.6561  27.5333  27.7170  29.0299  29.7962  30.9265  31.3527
    32.4585  33.4855  35.9622  37.1437  37.5919  37.6215  38.7430  38.9104

          k =-0.0625 0.3125 0.0625 (  4235 PWs)   bands (ev):

    -7.6678   1.6374   3.4017   3.4237   6.6584   7.4026   9.4505   9.4507
    11.6504  13.9176  14.2222  15.4658  16.3076  17.1808  20.8253  23.4699
    23.4738  25.4728  25.8366  27.6228  29.2533  30.0632  31.9101  33.4606
    33.6536  34.3578  35.2213  35.3280  35.6181  36.4346  37.6284  37.9959

          k =-0.1875 0.4375-0.0625 (  4220 PWs)   bands (ev):

    -7.3038   0.3886   2.5794   3.1806   7.0252   7.5768   9.7052  10.1010
    11.9354  14.2848  14.9157  16.2213  17.5891  19.2647  20.2534  21.9228
    23.1848  24.0863  25.6114  26.4863  28.5654  30.4584  31.9348  32.2798
    33.4326  33.5355  34.2599  34.8394  35.3749  35.8605  36.4743  36.9268

          k =-0.3125 0.5625-0.1875 (  4227 PWs)   bands (ev):

    -6.7870  -0.9744   2.0516   2.8311   6.8282   8.4235   9.8158  10.3738
    13.1960  14.5222  15.7122  16.7927  18.5169  19.4456  20.5969  22.2138
    22.4737  25.0480  25.9946  26.4880  27.0486  28.9211  29.6183  30.5531
    31.5635  32.2177  32.9616  34.0755  34.3242  35.3557  35.6930  36.7819

          k = 0.5625-0.3125 0.6875 (  4244 PWs)   bands (ev):

    -6.4385  -1.7064   1.7612   2.7440   6.7477   8.4905   9.9628  11.4644
    13.3120  14.7038  15.5673  16.5238  18.1885  19.8115  21.8963  22.9868
    23.8828  25.1201  25.8386  26.0634  27.1824  27.4903  29.0581  29.4648
    30.1837  30.7491  31.4722  33.1694  33.4650  35.4881  35.6909  37.0392

          k = 0.4375-0.1875 0.5625 (  4238 PWs)   bands (ev):

    -6.6328  -1.3120   1.7370   2.9853   6.8388   8.5848   9.8093  10.8430
    13.2126  14.2088  15.4429  16.8443  18.9031  19.7028  20.9502  21.9710
    23.9712  25.0667  26.0038  26.5242  27.1676  27.8459  28.9863  29.7261
    30.5119  31.8846  32.7269  33.6385  34.0103  35.4576  35.9882  36.9434

          k = 0.3125-0.0625 0.4375 (  4232 PWs)   bands (ev):

    -7.1432  -0.1084   2.1130   3.4158   6.9773   8.3463   9.5558   9.8168
    12.1934  14.1811  15.1594  16.4955  18.1753  19.0549  21.0039  22.0670
    23.3869  23.8867  25.0220  26.4183  28.6091  29.7515  31.3291  31.7286
    32.1078  33.4157  34.1776  34.5919  35.4760  35.8350  36.4872  37.0985

          k = 0.1875 0.0625 0.3125 (  4228 PWs)   bands (ev):

    -7.5760   1.1375   3.0829   3.7236   6.4973   7.9447   9.2070   9.5628
    12.0013  13.5140  14.1163  15.4789  16.8248  18.5314  21.1192  21.8099
    23.5448  25.1051  26.2891  27.2416  28.5960  31.2675  32.0980  32.8450
    33.3900  34.3808  34.7327  34.9384  36.2437  36.3110  37.0195  37.1624

          k =-0.0625 0.5625 0.0625 (  4221 PWs)   bands (ev):

    -7.0379  -0.0888   2.4086   2.4950   6.4308   7.2993  10.6806  11.1872
    11.9923  15.2086  16.1821  17.2991  17.8962  18.7720  20.3115  20.3930
    22.6699  22.7940  25.3417  28.1630  28.9508  29.7172  30.3196  30.6789
    31.0158  32.1555  33.6036  35.2395  36.4192  37.4726  37.6238  38.3421

          k =-0.1875 0.6875-0.0625 (  4211 PWs)   bands (ev):

    -6.6006  -0.9652   1.7418   2.1896   6.5653   7.4405  10.5081  11.9943
    13.3422  16.1168  16.5469  17.4438  18.4228  19.0801  20.0662  21.1223
    21.7269  23.0967  25.8206  26.7860  27.6111  28.3126  29.0542  29.6684
    30.6581  32.4810  33.0795  34.2521  35.1765  35.6791  36.7207  37.4581

          k = 0.6875-0.1875 0.8125 (  4232 PWs)   bands (ev):

    -6.2261  -1.5856   1.0195   2.1521   6.7078   8.8014  10.2525  11.7901
    13.3132  15.6063  16.7279  17.0577  18.6227  20.6433  21.5582  22.3180
    22.7808  23.4659  24.5531  25.4677  26.1722  27.7128  28.6386  29.6250
    30.6698  30.8827  31.4944  33.4219  33.8453  34.3632  35.7699  37.9210

          k = 0.5625-0.0625 0.6875 (  4234 PWs)   bands (ev):

    -6.2564  -1.5290   0.7310   2.4558   6.9978   9.4637  10.3189  11.6529
    12.1405  13.7948  16.9545  18.1649  19.2318  20.3548  20.9558  22.6856
    23.7309  24.3828  24.8519  25.9702  26.5163  27.0635  28.0802  29.3682
    29.7642  30.1249  31.3166  33.3652  34.3921  35.0857  35.4654  38.0412

          k = 0.4375 0.0625 0.5625 (  4228 PWs)   bands (ev):

    -6.6536  -1.0249   1.2597   2.9596   7.2306   8.8533   9.6297  10.6197
    12.6479  14.4714  16.0851  16.9977  17.9317  20.6373  21.3694  22.1653
    23.5951  24.0471  25.3071  26.5356  27.0570  28.2603  28.8676  29.4646
    30.4378  32.0807  32.9515  33.8397  34.7869  35.9247  36.2575  37.1075

          k = 0.3125 0.1875 0.4375 (  4234 PWs)   bands (ev):

    -7.0760  -0.5041   2.5940   3.3222   6.3909   8.6141   9.5366  10.1596
    12.6600  13.5544  14.7030  17.1206  18.9920  19.4754  20.6066  21.2689
    22.2574  24.0059  26.4452  27.6565  28.8761  29.1613  30.5621  31.5264
    32.2808  32.8620  33.2383  34.3277  34.4928  35.0039  36.2341  37.5701

          k =-0.0625 0.8125 0.0625 (  4224 PWs)   bands (ev):

    -6.2933  -1.4692   1.7600   1.9123   5.8977   6.6736  12.5036  13.0133
    13.7723  16.4144  17.1086  17.7442  18.4398  19.7143  20.2115  20.6814
    21.1271  21.8479  24.6403  25.9540  26.1524  27.6695  29.0395  30.6824
    30.9175  31.8353  33.4105  34.5992  35.4674  36.4390  36.4728  38.1633

          k = 0.8125-0.0625 0.9375 (  4223 PWs)   bands (ev):

    -6.0499  -1.7953   1.3250   1.7294   6.2153   7.0623  12.3219  13.1029
    14.0535  16.1921  16.7499  17.5807  18.9488  20.2529  20.5122  21.5385
    22.1336  23.2003  23.7615  24.4972  25.5091  26.6007  27.7273  29.7576
    31.5506  33.1378  33.5250  34.1923  34.4752  35.9399  36.0508  36.9190

          k = 0.6875 0.0625 0.8125 (  4226 PWs)   bands (ev):

    -6.0716  -1.7106   0.7451   2.0191   6.5943   8.7937  11.0528  11.9553
    12.9397  14.9166  17.4806  18.3708  19.3373  20.2164  20.8224  21.8097
    22.8080  24.0233  24.6258  25.0830  26.1773  26.7778  27.8812  29.1157
    29.6948  30.7643  32.9160  33.7140  34.2643  34.8513  35.1300  37.3137

          k = 0.5625 0.1875 0.6875 (  4231 PWs)   bands (ev):

    -6.3183  -1.6420   1.1421   2.5522   6.9846   8.8129  10.4271  11.4335
    12.6373  14.5301  15.6968  17.5248  19.3999  20.2779  20.8388  23.0084
    23.9305  24.6100  25.2794  25.8048  26.9959  27.3174  28.0608  29.6348
    29.7422  30.2923  32.1552  32.9883  33.7360  34.1625  36.1106  37.5503

          k = 0.4375 0.3125 0.5625 (  4238 PWs)   bands (ev):

    -6.6025  -1.6227   2.3796   3.0282   6.2179   8.6531   9.4470  11.4342
    13.3284  14.5173  15.5193  16.5109  17.6956  19.3001  21.3445  22.7616
    24.3861  25.0734  26.3555  27.0691  27.4965  27.9871  28.4684  29.6832
    31.1821  31.6578  32.3020  33.2098  33.4191  34.3166  35.8535  37.0088

          k =-0.0625-0.9375 0.0625 (  4222 PWs)   bands (ev):

    -6.0613  -1.8323   1.6251   1.7905   5.7976   6.4878  13.3886  13.7020
    14.1343  16.5584  16.8021  17.2852  17.8526  19.5808  21.0295  22.1631
    22.2166  22.8773  23.2711  23.9953  24.4176  25.8512  29.3753  31.1878
    31.5548  32.8841  33.8259  34.7319  35.1251  36.2689  36.2843  37.0798

          k =-0.1875-0.8125-0.0625 (  4222 PWs)   bands (ev):

    -6.2636  -1.4876   1.4689   1.8828   6.3346   7.2046  11.3896  12.8736
    13.8835  16.2956  16.7835  17.6583  18.5442  19.4167  20.5143  21.2385
    22.2616  22.8346  23.9182  25.4848  27.1181  27.5245  28.4855  29.6496
    30.9478  31.9103  33.3515  34.0296  34.6783  35.9118  36.2746  37.1366

          k =-0.3125-0.6875-0.1875 (  4224 PWs)   bands (ev):

    -6.4861  -1.3383   1.4935   2.4222   6.8677   8.6427   9.8100  11.0550
    13.6646  15.7072  15.9345  16.6959  17.9139  19.9855  21.5916  22.2427
    23.3258  24.0367  24.4688  25.7407  27.9045  28.4710  28.8934  29.5954
    30.4620  31.0653  32.7482  33.3180  34.0254  34.4942  36.6495  37.2066

          k =-0.0625-0.6875 0.0625 (  4208 PWs)   bands (ev):

    -6.6528  -0.8519   2.0249   2.1508   6.1074   6.9932  11.5294  12.1146
    12.9135  15.8164  17.0782  18.4428  18.8195  19.1655  19.1773  20.0017
    21.4974  21.6538  26.6183  27.5349  28.0422  28.2945  29.0312  29.9450
    30.5349  31.3810  33.6875  34.6477  35.9586  36.9128  36.9206  38.5483

          k =-0.1875-0.5625-0.0625 (  4211 PWs)   bands (ev):

    -6.9674  -0.3215   2.1205   2.6369   6.8781   7.5992   9.8769  11.0404
    12.5444  15.2063  15.8004  17.0428  18.4191  19.1204  20.1035  20.5007
    22.7422  24.3551  25.4201  26.6885  28.1780  28.7953  30.0112  31.4561
    32.1632  33.0262  33.5178  34.5867  35.0220  36.0635  36.8074  37.4860

          k =-0.0625-0.4375 0.0625 (  4223 PWs)   bands (ev):

    -7.3872   0.7533   2.8890   2.9246   6.8494   7.2728  10.0886  10.2853
    11.3805  14.6668  15.0525  16.2549  16.9754  17.8742  21.8308  21.8491
    22.9865  24.0525  24.2483  27.8688  29.5482  30.3254  31.1468  32.7147
    32.8218  33.0902  34.6365  35.6339  36.1140  36.4155  37.0115  38.0789

          k =-0.1875 0.1875 0.1875 (  4240 PWs)   bands (ev):

    -7.6713   1.3274   3.8090   3.8090   5.7767   8.8161   8.8161   8.9703
    12.9653  12.9653  13.1301  14.8595  17.7973  17.7973  20.1497  23.5391
    23.5950  23.5950  28.7908  28.7908  29.5266  29.5266  30.0740  31.6599
    34.1210  34.8862  34.8862  35.8385  35.8385  37.8338  37.8338  37.9905

          k =-0.3125 0.3125 0.0625 (  4227 PWs)   bands (ev):

    -7.3974   0.5086   2.6028   3.7831   6.5633   8.6510   8.9307   9.6813
    12.1539  13.4039  14.5161  15.9503  17.4991  20.0024  20.1785  21.9307
    23.5163  23.8876  25.8178  26.6747  29.5469  30.5325  31.9323  32.3040
    33.6663  33.8699  33.9495  34.3567  35.7068  35.9919  37.2036  37.8989

          k =-0.4375 0.4375-0.0625 (  4221 PWs)   bands (ev):

    -6.9188  -0.5992   1.6479   3.3613   6.9705   9.1005   9.5248   9.7726
    12.2696  14.4907  15.7522  16.6905  17.5499  19.8771  21.9602  22.3880
    22.7699  24.4839  24.7064  25.6978  28.9571  29.1947  30.0288  30.5831
    31.3585  31.4334  33.3938  35.1349  36.0619  36.2387  36.9528  36.9813

          k = 0.4375-0.4375 0.8125 (  4244 PWs)   bands (ev):

    -6.4670  -1.5427   1.4134   2.9001   6.7865   8.8558   9.9379  11.3129
    13.4992  13.6378  15.1341  17.6898  19.4790  19.6425  20.3023  23.1731
    24.5505  25.2818  25.8180  25.8182  26.0642  28.1467  28.4408  29.5258
    30.1308  30.8028  31.6399  33.1505  34.4434  35.5607  36.2702  36.9143

          k = 0.3125-0.3125 0.6875 (  4234 PWs)   bands (ev):

    -6.4585  -1.5641   1.6549   2.6283   6.6770   8.7285  10.2749  10.6500
    13.6061  15.3699  15.7310  16.6455  17.3609  20.9085  21.7275  22.1430
    23.5940  24.3041  25.2254  25.9754  27.3529  28.8944  28.8966  29.7228
    30.0866  30.9220  31.7452  32.4269  34.0248  35.4384  36.1891  36.8831

          k = 0.1875-0.1875 0.5625 (  4222 PWs)   bands (ev):

    -6.9044  -0.5988   2.2207   2.6357   6.7588   8.1239   9.7822  10.5492
    13.0520  14.9981  15.2703  17.4032  18.7794  19.3325  19.5122  20.8698
    23.4948  24.6700  25.3771  26.0461  27.5107  29.8559  30.7233  30.9990
    31.1089  32.3622  33.2235  34.0861  35.7087  36.1304  36.1564  36.8192

          k =-0.1875 0.4375 0.1875 (  4220 PWs)   bands (ev):

    -7.2255  -0.0044   2.9016   3.0196   6.6237   8.1343   9.7900   9.8824
    12.3305  14.0680  14.3220  16.6897  18.6034  19.8699  20.2827  20.4550
    23.2776  23.9578  26.1893  26.5001  29.6749  29.6962  30.9360  32.3056
    33.0789  33.4821  33.8321  34.2952  34.3568  36.0789  36.8718  37.2101

          k =-0.3125 0.5625 0.0625 (  4220 PWs)   bands (ev):

    -6.8340  -0.6701   1.6855   2.8404   7.4059   8.0682   9.3445  10.8490
    12.6704  15.0986  15.9711  16.7973  17.7450  19.8365  20.6844  21.9153
    22.6919  24.6601  25.7963  26.1798  27.5067  27.8756  29.3882  30.8672
    32.3960  32.9247  33.5656  34.1842  34.7982  35.0441  35.9870  36.9559

          k = 0.5625-0.3125 0.9375 (  4238 PWs)   bands (ev):

    -6.3829  -1.3578   0.9905   2.3758   7.7143   8.5544   9.4968  11.7965
    12.7430  14.3418  16.6974  17.7007  18.6548  19.7528  21.3355  22.7592
    23.6377  24.6975  24.8860  25.3948  26.3786  28.0231  28.4588  29.1860
    30.0126  31.1117  32.3354  32.9263  34.0893  34.8421  35.9412  37.3501

          k = 0.4375-0.1875 0.8125 (  4230 PWs)   bands (ev):

    -6.2102  -1.6313   0.9559   2.1105   7.4699   8.6692  10.1502  11.8127
    12.3901  15.4817  16.6205  16.7687  19.7074  20.5361  21.2031  22.1771
    23.1873  24.4038  25.3979  25.8751  26.3535  26.9330  28.1463  28.9569
    29.9299  31.5940  31.7440  32.5700  32.9043  34.2319  35.4123  37.7053

          k = 0.3125-0.0625 0.6875 (  4220 PWs)   bands (ev):

    -6.5050  -1.1533   1.3561   2.2619   7.3446   8.1126   9.4576  11.9138
    13.2187  15.4145  16.7107  17.0550  18.3147  19.3221  21.0365  21.8779
    22.8859  24.4659  25.0200  25.7655  26.8343  28.0299  28.6715  30.1310
    30.9149  31.6723  32.3235  33.6630  34.8050  34.9666  36.2721  36.7762

          k =-0.1875 0.6875 0.1875 (  4219 PWs)   bands (ev):

    -6.5592  -1.1166   1.6261   2.3222   6.5350   8.0958  10.2657  11.2716
    13.8293  16.1000  16.1938  17.1799  17.6149  19.8741  20.1887  21.9045
    22.8558  23.2846  24.9394  25.9075  28.2567  28.4553  28.8438  30.4843
    30.5609  32.0520  32.2191  32.9001  35.3737  36.1142  36.5106  37.5313

          k = 0.6875-0.1875 1.0625 (  4227 PWs)   bands (ev):

    -6.2126  -1.5271   1.1423   1.8023   7.1404   8.0470  10.0990  12.6345
    13.3675  15.6232  17.0994  17.6524  18.7853  19.5104  20.5942  22.6187
    23.1005  23.6010  24.3681  25.0154  25.9110  27.9483  28.6699  29.5615
    30.3037  31.2609  31.8282  33.0507  34.0783  35.2962  36.2829  37.4456

          k = 0.5625-0.0625 0.9375 (  4222 PWs)   bands (ev):

    -6.0219  -1.6977   0.8835   1.4007   8.0562   8.8468   9.7311  10.8814
    14.0916  16.0104  16.7048  17.7901  19.3920  20.5955  21.3132  21.8926
    22.5871  23.4487  24.5989  25.8550  26.8278  27.5669  28.0945  28.9027
    29.2369  29.5541  31.0532  31.6960  34.4270  35.2720  37.0505  37.8333

          k = 0.4375 0.0625 0.8125 (  4228 PWs)   bands (ev):

    -6.1547  -1.5840   0.8671   1.8040   8.0846   8.5611   9.4359  11.8045
    13.0804  15.1897  17.2487  17.7472  19.0519  19.9235  20.9491  22.7468
    23.7176  24.1641  24.5699  25.0838  26.0877  27.2674  28.3805  29.5625
    30.0849  30.8118  31.3759  31.7950  32.7480  35.2889  36.9544  37.6324

          k =-0.1875-1.0625 0.1875 (  4225 PWs)   bands (ev):

    -6.0553  -1.7637   0.9640   1.9900   6.1673   7.8390  12.1185  12.5949
    13.3065  15.3166  17.3162  18.5240  18.9307  20.0650  20.7988  21.0985
    22.9505  23.1524  24.6386  24.6415  25.7641  26.3382  27.4193  29.7994
    30.9785  32.2357  32.6559  34.1841  34.7769  35.5510  36.1908  37.1824

          k =-0.3125-0.9375 0.0625 (  4235 PWs)   bands (ev):

    -6.0336  -1.7397   1.0446   1.5436   7.0215   7.9642  10.9515  12.0103
    14.0602  16.0523  16.7231  17.7203  19.6068  20.4298  20.9915  21.6056
    22.0109  22.9710  24.9140  25.7154  26.1800  26.9477  27.5751  28.2578
    30.0925  31.5925  32.5161  33.6812  33.9910  35.4339  36.2130  37.0622

          k =-0.1875-0.8125 0.1875 (  4228 PWs)   bands (ev):

    -6.2483  -1.5260   1.1917   2.1027   6.2998   7.9436  11.1444  12.0081
    13.9823  16.0229  16.7537  17.7024  17.7170  20.4300  21.1207  21.8383
    22.2316  23.2315  23.7188  26.0222  26.4613  26.8696  29.1336  30.3629
    30.8151  30.9921  32.7045  32.7169  34.9346  35.7677  36.4218  37.6875

          k =-0.3125 0.3125 0.3125 (  4239 PWs)   bands (ev):

    -7.1630  -0.4941   3.4271   3.4271   5.5823   9.0798   9.0798  10.5229
    12.6775  13.4091  13.4091  17.2448  20.2203  20.2203  20.6079  20.6079
    20.7110  23.1224  29.1368  29.1368  29.9014  29.9236  29.9236  30.6271
    31.1813  31.1813  32.8050  35.2446  36.0396  36.0396  36.4265  36.4265

          k =-0.4375 0.4375 0.1875 (  4238 PWs)   bands (ev):

    -6.8702  -0.9601   2.1695   3.3377   6.4561   8.9248   9.2967  10.6088
    12.8767  13.6005  15.5420  16.6658  18.7129  20.1936  20.7564  21.1773
    22.8247  24.9610  26.2711  27.0090  28.1156  28.5605  30.1597  30.4633
    31.4295  32.3212  32.5689  34.1604  34.4112  35.5377  36.2535  36.5300

          k = 0.4375-0.4375 1.0625 (  4231 PWs)   bands (ev):

    -6.4505  -1.3210   0.9245   2.8506   6.9279   9.4623  10.3410  10.5532
    12.9346  13.3374  16.3546  17.6689  18.6872  20.8230  21.2296  22.6155
    23.1745  24.5722  25.6414  26.3184  26.6254  27.7666  28.3553  28.4638
    30.6843  30.7583  31.8465  32.6733  35.6005  36.1993  36.6257  37.0986

          k = 0.3125-0.3125 0.9375 (  4235 PWs)   bands (ev):

    -6.1476  -1.6449   0.6372   2.3625   6.5502   9.5436  11.2402  11.3839
    12.1638  14.0008  17.4066  18.4342  19.7285  19.9454  21.0372  22.0094
    23.5928  24.4838  24.5603  25.6248  26.0797  26.6175  28.3004  28.8479
    29.9923  31.1881  31.2132  32.3000  34.8360  35.8579  36.5877  36.8546

          k =-0.3125 0.5625 0.3125 (  4230 PWs)   bands (ev):

    -6.7034  -1.3423   2.4048   2.8693   6.4034   8.5583   9.7441  10.7713
    13.2070  14.5851  15.5850  16.8938  17.4590  20.1947  21.2405  21.4459
    23.0918  25.5574  26.6577  26.7347  27.0839  28.4707  29.3285  30.6114
    31.3373  31.7693  32.1387  32.8281  34.4849  35.2497  35.7853  36.2724

          k = 0.5625-0.3125 1.1875 (  4236 PWs)   bands (ev):

    -6.3989  -1.5344   1.3238   2.5038   7.3067   8.3673  10.1624  11.2375
    13.0372  14.9455  15.5867  17.1507  18.7960  20.1477  21.2739  22.8797
    23.6222  24.4053  25.1683  26.3611  27.1012  27.5691  28.5624  29.1547
    29.6313  31.4170  32.2468  32.9337  34.1876  34.7136  35.3959  36.2455

          k = 0.4375-0.1875 1.0625 (  4229 PWs)   bands (ev):

    -6.1047  -1.6481   0.7167   1.9056   7.4286   9.2508  10.0572  11.2542
    12.9645  14.9384  17.3770  17.9947  19.3174  20.1159  21.2474  22.5508
    23.0460  24.1234  24.3397  25.8008  26.4455  27.6545  28.1057  28.6647
    29.0350  30.1925  32.1462  32.7156  33.3232  34.5910  35.7849  37.8495

          k =-0.3125-1.1875 0.3125 (  4230 PWs)   bands (ev):

    -6.2595  -1.6470   1.0195   2.4537   6.6324   9.2326  10.7140  10.8776
    13.1268  14.7431  16.1554  17.5972  18.6483  21.1386  21.3320  22.7214
    22.9648  24.0643  24.5639  26.1908  26.4323  27.5668  28.3894  29.0074
    30.9083  31.0796  31.7347  32.1049  32.8614  35.5739  36.2536  37.5712

          k =-0.4375 0.4375 0.4375 (  4230 PWs)   bands (ev):

    -6.6788  -1.6745   3.2029   3.2029   5.3878   9.0244   9.0244  11.3062
    13.4000  14.9899  14.9899  17.0145  17.6267  17.6267  21.6751  23.4761
    23.4761  25.6664  26.8886  26.8886  26.9120  29.9787  29.9787  30.4997
    30.4997  30.5033  31.1717  34.2409  34.9474  34.9474  35.2071  35.2071

          k = 0.4375-0.4375 1.3125 (  4231 PWs)   bands (ev):

    -6.5081  -1.7494   2.1315   2.9888   6.3401   8.6639   9.4890  11.6887
    13.6451  14.6755  14.7242  16.9895  18.0946  18.6474  21.8459  23.7112
    24.5560  24.8329  26.0509  26.6018  27.0552  27.5017  28.7241  30.1638
    30.4484  31.3771  31.4340  32.1451  34.6100  35.2174  35.4860  36.4670

     highest occupied, lowest unoccupied level (ev):     4.1548    5.1233

!    total energy              =     -16.92576857 Ry
     estimated scf accuracy    <          5.6E-11 Ry

     The total energy is the sum of the following terms:
     one-electron contribution =       2.03683601 Ry
     hartree contribution      =       1.78757244 Ry
     xc contribution           =      -4.66405868 Ry
     ewald contribution        =     -16.08611835 Ry

     convergence has been achieved in   9 iterations

     Forces acting on atoms (cartesian axes, Ry/au):

     atom    1 type  1   force =     0.00000000    0.00000000    0.00000000
     atom    2 type  2   force =    -0.00000000   -0.00000000   -0.00000000

     Total force =     0.000000     Total SCF correction =     0.000000


     Computing stress (Cartesian axis) and pressure

          total   stress  (Ry/bohr**3)                   (kbar)     P=       -0.02
  -0.00000012  -0.00000000   0.00000000           -0.02       -0.00        0.00
  -0.00000000  -0.00000012   0.00000000           -0.00       -0.02        0.00
   0.00000000   0.00000000  -0.00000012            0.00        0.00       -0.02


     Writing all to output data dir ./work/InAs.save/
 
     init_run     :      0.44s CPU      0.48s WALL (       1 calls)
     electrons    :     13.21s CPU     13.56s WALL (       1 calls)
     forces       :      0.04s CPU      0.05s WALL (       1 calls)
     stress       :      0.15s CPU      0.15s WALL (       1 calls)

     Called by init_run:
     wfcinit      :      0.39s CPU      0.41s WALL (       1 calls)
     potinit      :      0.01s CPU      0.01s WALL (       1 calls)
     hinit0       :      0.02s CPU      0.04s WALL (       1 calls)

     Called by electrons:
     c_bands      :     11.59s CPU     11.91s WALL (       9 calls)
     sum_band     :      1.61s CPU      1.64s WALL (       9 calls)
     v_of_rho     :      0.00s CPU      0.00s WALL (      10 calls)
     mix_rho      :      0.00s CPU      0.00s WALL (       9 calls)

     Called by c_bands:
     init_us_2    :      0.09s CPU      0.09s WALL (    1260 calls)
     init_us_2:cp :      0.09s CPU      0.09s WALL (    1260 calls)
     cegterg      :     11.30s CPU     11.62s WALL (     540 calls)

     Called by *egterg:
     cdiaghg      :      2.79s CPU      2.85s WALL (    2527 calls)
     h_psi        :      7.97s CPU      8.21s WALL (    2587 calls)
     g_psi        :      0.04s CPU      0.04s WALL (    1987 calls)

     Called by h_psi:
     h_psi:calbec :      0.16s CPU      0.16s WALL (    2587 calls)
     vloc_psi     :      7.68s CPU      7.91s WALL (    2587 calls)
     add_vuspsi   :      0.10s CPU      0.11s WALL (    2587 calls)

     General routines
     calbec       :      0.18s CPU      0.19s WALL (    2887 calls)
     fft          :      0.01s CPU      0.03s WALL (      34 calls)
     ffts         :      0.00s CPU      0.00s WALL (       9 calls)
     fftw         :      8.45s CPU      8.69s WALL (  107334 calls)
 
     Parallel routines
 
     PWSCF        :     14.06s CPU     14.74s WALL

 
   This run was terminated on:  18:32:45  30Jan2023            

=------------------------------------------------------------------------------=
   JOB DONE.
=------------------------------------------------------------------------------=
