
     Program PWSCF v.7.1 starts on 30Jan2023 at 20:30:13 

     This program is part of the open-source Quantum ESPRESSO suite
     for quantum simulation of materials; please cite
         "P. Giannozzi et al., J. Phys.:Condens. Matter 21 395502 (2009);
         "P. Giannozzi et al., J. Phys.:Condens. Matter 29 465901 (2017);
         "P. Giannozzi et al., J. Chem. Phys. 152 154105 (2020);
          URL http://www.quantum-espresso.org", 
     in publications or presentations arising from this work. More details at
     http://www.quantum-espresso.org/quote

     Parallel version (MPI), running on    20 processors

     MPI processes distributed on     1 nodes
     118542 MiB available memory on the printing compute node when the environment starts
 
     Waiting for input...
     Reading input from standard input

     Current dimensions of program PWSCF are:
     Max number of different atomic species (ntypx) = 10
     Max number of k-points (npk) =  40000
     Max angular momentum in pseudopotentials (lmaxx) =  4
 
     R & G space division:  proc/nbgrp/npool/nimage =      20
     Subspace diagonalization in iterative solution of the eigenvalue problem:
     a serial algorithm will be used

 
     Parallelization info
     --------------------
     sticks:   dense  smooth     PW     G-vecs:    dense   smooth      PW
     Min          64      64     18                 1535     1535     248
     Max          65      65     19                 1540     1540     253
     Sum        1285    1285    379                30731    30731    5029
 
     Using Slab Decomposition
 


     bravais-lattice index     =            2
     lattice parameter (alat)  =      10.8238  a.u.
     unit-cell volume          =     317.0139 (a.u.)^3
     number of atoms/cell      =            2
     number of atomic types    =            2
     number of electrons       =         8.00
     number of Kohn-Sham states=           32
     kinetic-energy cutoff     =      80.0000  Ry
     charge density cutoff     =     320.0000  Ry
     scf convergence threshold =      1.0E-10
     mixing beta               =       0.1500
     number of iterations used =            8  plain     mixing
     Exchange-correlation= SLA-PZ-NOGX-NOGC
                           (   1   1   0   0   0   0   0)

     celldm(1)=  10.823792  celldm(2)=   0.000000  celldm(3)=   0.000000
     celldm(4)=   0.000000  celldm(5)=   0.000000  celldm(6)=   0.000000

     crystal axes: (cart. coord. in units of alat)
               a(1) = (  -0.500000   0.000000   0.500000 )  
               a(2) = (   0.000000   0.500000   0.500000 )  
               a(3) = (  -0.500000   0.500000   0.000000 )  

     reciprocal axes: (cart. coord. in units 2 pi/alat)
               b(1) = ( -1.000000 -1.000000  1.000000 )  
               b(2) = (  1.000000  1.000000  1.000000 )  
               b(3) = ( -1.000000  1.000000 -1.000000 )  


     PseudoPot. # 1 for In read from file:
     ../../pseudo/In.pz-hgh.upf
     MD5 check sum: 6872a669b76e2059a5c804d9a9b24c5c
     Pseudo is Norm-conserving, Zval =  3.0
     Generated in analytical, separable form
     Using radial grid of 1241 points,  6 beta functions with: 
                l(1) =   0
                l(2) =   0
                l(3) =   0
                l(4) =   1
                l(5) =   1
                l(6) =   2

     PseudoPot. # 2 for P  read from file:
     ../../pseudo/P.pz-hgh.upf
     MD5 check sum: 95fb0514269fd57292f1f0e003240d1b
     Pseudo is Norm-conserving, Zval =  5.0
     Generated in analytical, separable form
     Using radial grid of 1147 points,  3 beta functions with: 
                l(1) =   0
                l(2) =   0
                l(3) =   1

     atomic species   valence    mass     pseudopotential
        In             3.00   114.81800     In( 1.00)
        P              5.00    30.97376     P ( 1.00)

     24 Sym. Ops. (no inversion) found



   Cartesian axes

     site n.     atom                  positions (alat units)
         1           In  tau(   1) = (   0.0000000   0.0000000   0.0000000  )
         2           P   tau(   2) = (  -0.2500000   0.2500000   0.2500000  )

     number of k points=    60
                       cart. coord. in units 2pi/alat
        k(    1) = (  -0.0625000   0.0625000   0.0625000), wk =   0.0078125
        k(    2) = (  -0.1875000   0.1875000  -0.0625000), wk =   0.0234375
        k(    3) = (  -0.3125000   0.3125000  -0.1875000), wk =   0.0234375
        k(    4) = (  -0.4375000   0.4375000  -0.3125000), wk =   0.0234375
        k(    5) = (   0.4375000  -0.4375000   0.5625000), wk =   0.0234375
        k(    6) = (   0.3125000  -0.3125000   0.4375000), wk =   0.0234375
        k(    7) = (   0.1875000  -0.1875000   0.3125000), wk =   0.0234375
        k(    8) = (   0.0625000  -0.0625000   0.1875000), wk =   0.0234375
        k(    9) = (  -0.0625000   0.3125000   0.0625000), wk =   0.0234375
        k(   10) = (  -0.1875000   0.4375000  -0.0625000), wk =   0.0468750
        k(   11) = (  -0.3125000   0.5625000  -0.1875000), wk =   0.0468750
        k(   12) = (   0.5625000  -0.3125000   0.6875000), wk =   0.0468750
        k(   13) = (   0.4375000  -0.1875000   0.5625000), wk =   0.0468750
        k(   14) = (   0.3125000  -0.0625000   0.4375000), wk =   0.0468750
        k(   15) = (   0.1875000   0.0625000   0.3125000), wk =   0.0468750
        k(   16) = (  -0.0625000   0.5625000   0.0625000), wk =   0.0234375
        k(   17) = (  -0.1875000   0.6875000  -0.0625000), wk =   0.0468750
        k(   18) = (   0.6875000  -0.1875000   0.8125000), wk =   0.0468750
        k(   19) = (   0.5625000  -0.0625000   0.6875000), wk =   0.0468750
        k(   20) = (   0.4375000   0.0625000   0.5625000), wk =   0.0468750
        k(   21) = (   0.3125000   0.1875000   0.4375000), wk =   0.0468750
        k(   22) = (  -0.0625000   0.8125000   0.0625000), wk =   0.0234375
        k(   23) = (   0.8125000  -0.0625000   0.9375000), wk =   0.0468750
        k(   24) = (   0.6875000   0.0625000   0.8125000), wk =   0.0468750
        k(   25) = (   0.5625000   0.1875000   0.6875000), wk =   0.0468750
        k(   26) = (   0.4375000   0.3125000   0.5625000), wk =   0.0468750
        k(   27) = (  -0.0625000  -0.9375000   0.0625000), wk =   0.0234375
        k(   28) = (  -0.1875000  -0.8125000  -0.0625000), wk =   0.0468750
        k(   29) = (  -0.3125000  -0.6875000  -0.1875000), wk =   0.0468750
        k(   30) = (  -0.0625000  -0.6875000   0.0625000), wk =   0.0234375
        k(   31) = (  -0.1875000  -0.5625000  -0.0625000), wk =   0.0468750
        k(   32) = (  -0.0625000  -0.4375000   0.0625000), wk =   0.0234375
        k(   33) = (  -0.1875000   0.1875000   0.1875000), wk =   0.0078125
        k(   34) = (  -0.3125000   0.3125000   0.0625000), wk =   0.0234375
        k(   35) = (  -0.4375000   0.4375000  -0.0625000), wk =   0.0234375
        k(   36) = (   0.4375000  -0.4375000   0.8125000), wk =   0.0234375
        k(   37) = (   0.3125000  -0.3125000   0.6875000), wk =   0.0234375
        k(   38) = (   0.1875000  -0.1875000   0.5625000), wk =   0.0234375
        k(   39) = (  -0.1875000   0.4375000   0.1875000), wk =   0.0234375
        k(   40) = (  -0.3125000   0.5625000   0.0625000), wk =   0.0468750
        k(   41) = (   0.5625000  -0.3125000   0.9375000), wk =   0.0468750
        k(   42) = (   0.4375000  -0.1875000   0.8125000), wk =   0.0468750
        k(   43) = (   0.3125000  -0.0625000   0.6875000), wk =   0.0468750
        k(   44) = (  -0.1875000   0.6875000   0.1875000), wk =   0.0234375
        k(   45) = (   0.6875000  -0.1875000   1.0625000), wk =   0.0468750
        k(   46) = (   0.5625000  -0.0625000   0.9375000), wk =   0.0468750
        k(   47) = (   0.4375000   0.0625000   0.8125000), wk =   0.0468750
        k(   48) = (  -0.1875000  -1.0625000   0.1875000), wk =   0.0234375
        k(   49) = (  -0.3125000  -0.9375000   0.0625000), wk =   0.0468750
        k(   50) = (  -0.1875000  -0.8125000   0.1875000), wk =   0.0234375
        k(   51) = (  -0.3125000   0.3125000   0.3125000), wk =   0.0078125
        k(   52) = (  -0.4375000   0.4375000   0.1875000), wk =   0.0234375
        k(   53) = (   0.4375000  -0.4375000   1.0625000), wk =   0.0234375
        k(   54) = (   0.3125000  -0.3125000   0.9375000), wk =   0.0234375
        k(   55) = (  -0.3125000   0.5625000   0.3125000), wk =   0.0234375
        k(   56) = (   0.5625000  -0.3125000   1.1875000), wk =   0.0468750
        k(   57) = (   0.4375000  -0.1875000   1.0625000), wk =   0.0468750
        k(   58) = (  -0.3125000  -1.1875000   0.3125000), wk =   0.0234375
        k(   59) = (  -0.4375000   0.4375000   0.4375000), wk =   0.0078125
        k(   60) = (   0.4375000  -0.4375000   1.3125000), wk =   0.0234375

     Dense  grid:    30731 G-vectors     FFT dimensions: (  45,  45,  45)

     Estimated max dynamical RAM per process >      10.29 MB

     Estimated total dynamical RAM >     205.79 MB

     Initial potential from superposition of free atoms

     starting charge       6.4757, renormalised to       8.0000
     Starting wfcs are   18 randomized atomic wfcs +   14 random wfcs

     total cpu time spent up to now is        0.6 secs

     Self-consistent Calculation

     iteration #  1     ecut=    80.00 Ry     beta= 0.15
     Davidson diagonalization with overlap
     ethr =  1.00E-02,  avg # of iterations =  6.8

     Threshold (ethr) on eigenvalues was too large:
     Diagonalizing with lowered threshold

     Davidson diagonalization with overlap
     ethr =  4.89E-04,  avg # of iterations =  1.9

     total cpu time spent up to now is        4.3 secs

     total energy              =     -17.42507120 Ry
     estimated scf accuracy    <       0.03922163 Ry

     iteration #  2     ecut=    80.00 Ry     beta= 0.15
     Davidson diagonalization with overlap
     ethr =  4.90E-04,  avg # of iterations =  1.0

     total cpu time spent up to now is        5.3 secs

     total energy              =     -17.41906753 Ry
     estimated scf accuracy    <       0.02732645 Ry

     iteration #  3     ecut=    80.00 Ry     beta= 0.15
     Davidson diagonalization with overlap
     ethr =  3.42E-04,  avg # of iterations =  1.1

     total cpu time spent up to now is        6.4 secs

     total energy              =     -17.41983362 Ry
     estimated scf accuracy    <       0.00075403 Ry

     iteration #  4     ecut=    80.00 Ry     beta= 0.15
     Davidson diagonalization with overlap
     ethr =  9.43E-06,  avg # of iterations =  4.8

     total cpu time spent up to now is        7.8 secs

     total energy              =     -17.41988102 Ry
     estimated scf accuracy    <       0.00005961 Ry

     iteration #  5     ecut=    80.00 Ry     beta= 0.15
     Davidson diagonalization with overlap
     ethr =  7.45E-07,  avg # of iterations =  3.3

     total cpu time spent up to now is        9.1 secs

     total energy              =     -17.41987418 Ry
     estimated scf accuracy    <       0.00002623 Ry

     iteration #  6     ecut=    80.00 Ry     beta= 0.15
     Davidson diagonalization with overlap
     ethr =  3.28E-07,  avg # of iterations =  1.9

     total cpu time spent up to now is       10.2 secs

     total energy              =     -17.41987625 Ry
     estimated scf accuracy    <       0.00000092 Ry

     iteration #  7     ecut=    80.00 Ry     beta= 0.15
     Davidson diagonalization with overlap
     ethr =  1.15E-08,  avg # of iterations =  4.8

     total cpu time spent up to now is       11.6 secs

     total energy              =     -17.41987614 Ry
     estimated scf accuracy    <       0.00000033 Ry

     iteration #  8     ecut=    80.00 Ry     beta= 0.15
     Davidson diagonalization with overlap
     ethr =  4.16E-09,  avg # of iterations =  1.9

     total cpu time spent up to now is       12.8 secs

     total energy              =     -17.41987618 Ry
     estimated scf accuracy    <          1.0E-10 Ry

     iteration #  9     ecut=    80.00 Ry     beta= 0.15
     Davidson diagonalization with overlap
     c_bands:  1 eigenvalues not converged
     ethr =  1.29E-12,  avg # of iterations =  9.8

     total cpu time spent up to now is       15.4 secs

     total energy              =     -17.41987618 Ry
     estimated scf accuracy    <          2.3E-10 Ry

     iteration # 10     ecut=    80.00 Ry     beta= 0.15
     Davidson diagonalization with overlap
     ethr =  1.29E-12,  avg # of iterations =  2.1

     total cpu time spent up to now is       16.8 secs

     End of self-consistent calculation

          k =-0.0625 0.0625 0.0625 (  3821 PWs)   bands (ev):

    -7.4215   3.8424   4.3555   4.3555   6.0589   8.6012   8.6624   8.6624
    13.5720  13.7211  13.7211  15.7997  16.4432  16.4432  19.1694  26.2617
    26.4798  26.4798  28.5973  28.5973  29.5531  29.6539  29.6539  31.9905
    32.6074  32.6074  38.3560  39.3409  39.3409  39.6558  40.1509  40.1509

          k =-0.1875 0.1875-0.0625 (  3816 PWs)   bands (ev):

    -7.1980   2.4234   3.7758   4.2481   6.7955   8.6723   8.8779   9.4327
    12.8004  13.4251  14.5344  15.7349  17.1070  18.2352  20.8424  23.6198
    24.8560  25.3443  27.2895  28.2934  29.6709  30.4472  31.0925  32.7271
    33.8379  34.4877  36.7622  37.3681  38.2735  39.0193  39.5156  39.6004

          k =-0.3125 0.3125-0.1875 (  3817 PWs)   bands (ev):

    -6.6753   0.4740   3.3140   3.8651   6.7436   9.2909   9.3806  10.3107
    12.7403  13.6630  14.2474  17.6382  19.4739  20.5935  20.6689  21.9770
    22.4354  23.8866  27.4063  28.3256  29.9485  30.8383  31.2614  32.4421
    33.3586  33.5026  34.2084  36.8949  37.3453  37.9771  38.7337  39.1790

          k =-0.4375 0.4375-0.3125 (  3824 PWs)   bands (ev):

    -6.0191  -1.1050   3.0778   3.4994   6.5067   9.2821   9.3730  11.5910
    13.9282  13.9728  15.2515  17.5166  19.1980  19.3667  21.3160  22.5306
    23.5756  26.7198  27.2126  28.1206  28.6569  29.3636  29.5791  31.5875
    31.7214  33.4669  33.8328  35.2536  35.6974  35.7056  37.2417  37.9584

          k = 0.4375-0.4375 0.5625 (  3815 PWs)   bands (ev):

    -5.7513  -1.6134   3.1005   3.3107   6.4393   9.1211   9.4348  11.9301
    14.2270  15.4501  15.5641  16.8937  17.4166  18.4844  23.2449  24.2397
    24.6698  25.6483  26.7310  27.2572  28.7692  28.9728  29.8238  31.2690
    31.7910  31.8112  33.9594  34.8749  35.2131  35.3175  36.9500  37.5294

          k = 0.3125-0.3125 0.4375 (  3836 PWs)   bands (ev):

    -6.2301  -0.6581   3.3604   3.3618   6.5782   9.1237   9.6195  11.1560
    13.4482  14.1026  14.5174  18.5545  19.0974  20.3020  20.9521  21.5463
    22.5429  25.9416  27.5439  28.1149  29.0873  30.1248  30.3585  31.5793
    32.0798  33.6019  33.8069  35.9102  35.9340  36.4835  37.8972  37.9047

          k = 0.1875-0.1875 0.3125 (  3808 PWs)   bands (ev):

    -6.8767   1.1142   3.6429   3.7793   6.8413   8.8409   9.5953   9.9292
    12.5448  13.6065  14.3197  16.8603  18.7474  19.5594  21.9796  22.1334
    22.7509  23.9299  27.5833  27.8786  30.3183  30.3254  31.8057  32.9441
    33.2560  34.3950  34.8788  37.4784  37.5217  38.1890  39.1414  39.2362

          k = 0.0625-0.0625 0.1875 (  3797 PWs)   bands (ev):

    -7.3087   3.0861   4.0603   4.1427   6.6665   8.2854   9.0705   9.0779
    12.8279  13.8585  14.1773  15.8362  16.6790  17.2119  20.1860  24.9979
    25.0486  26.4064  27.5642  27.9516  29.8904  30.0184  30.7210  32.5920
    33.2231  33.9416  37.4372  38.1237  38.8144  39.0475  39.5467  40.1431

          k =-0.0625 0.3125 0.0625 (  3818 PWs)   bands (ev):

    -7.0865   2.2122   3.6095   3.6507   7.3942   7.8017   9.7471   9.7483
    11.9400  14.1219  15.1556  16.3183  17.1547  17.8639  21.9214  23.4562
    23.4567  25.7561  26.4714  27.0197  30.3174  30.4355  31.5622  33.7834
    33.8510  34.9552  35.9216  36.8619  37.3696  38.1314  39.8200  39.8529

          k =-0.1875 0.4375-0.0625 (  3822 PWs)   bands (ev):

    -6.6631   0.8983   2.7934   3.4070   7.5752   8.1083   9.9661  10.4100
    12.2159  14.3931  15.8227  17.0411  18.5915  19.8810  20.5923  22.0033
    23.9598  24.6914  25.9035  26.4124  29.6174  31.0797  32.0219  32.8689
    33.5461  34.2248  35.5851  36.3261  36.7757  37.1742  38.1960  39.2951

          k =-0.3125 0.5625-0.1875 (  3826 PWs)   bands (ev):

    -6.0350  -0.6226   2.2961   3.0453   7.4054   8.8284  10.1115  10.6792
    13.5018  15.2382  15.7295  17.3658  19.1112  20.0410  21.3654  22.2986
    23.0194  25.4678  26.3727  27.4064  28.0575  29.7977  30.7467  31.5849
    32.4914  33.2143  34.1034  35.3182  36.0808  36.9382  37.3825  37.6474

          k = 0.5625-0.3125 0.6875 (  3830 PWs)   bands (ev):

    -5.5778  -1.4866   2.0155   2.9508   7.3585   8.7956  10.2310  11.7715
    13.8732  15.1963  16.0166  16.6996  18.4254  20.0166  22.5507  23.4734
    24.3363  25.6291  26.6323  27.0495  27.8512  28.2507  30.2473  31.2674
    31.6622  32.6765  33.1810  33.3469  35.2291  36.4613  37.2998  37.6544

          k = 0.4375-0.1875 0.5625 (  3821 PWs)   bands (ev):

    -5.8364  -1.0160   1.9740   3.1984   7.4840   8.8872  10.1015  11.1741
    13.4379  14.9684  16.0654  16.7926  19.4428  20.3133  20.9648  22.7981
    24.1851  25.5689  26.6284  27.3127  28.4962  29.0492  29.5199  31.0030
    32.0509  33.0054  34.0231  34.9977  35.5144  36.6253  37.2896  37.9552

          k = 0.3125-0.0625 0.4375 (  3820 PWs)   bands (ev):

    -6.4709   0.3501   2.3213   3.6347   7.6786   8.7448   9.8049  10.1685
    12.3511  14.7343  15.7655  17.0619  19.0655  19.7473  21.3468  22.1817
    23.5798  24.9156  25.3338  27.0005  29.4641  30.5657  31.8758  32.1166
    32.7531  34.1581  35.3034  36.0538  36.5739  37.4635  38.0230  38.8296

          k = 0.1875 0.0625 0.3125 (  3818 PWs)   bands (ev):

    -6.9800   1.6606   3.3010   3.9460   7.2566   8.3359   9.5326   9.8498
    12.2352  13.7468  15.1076  16.2526  17.6950  19.1504  22.0140  22.2688
    23.5502  25.1368  26.4213  27.4580  29.6277  31.2028  31.9227  33.0976
    33.9256  34.5854  35.8908  36.6615  37.5488  38.1711  39.0163  39.3414

          k =-0.0625 0.5625 0.0625 (  3839 PWs)   bands (ev):

    -6.3509   0.4320   2.6129   2.6956   6.8106   7.8118  11.0390  11.4630
    12.3441  14.9368  17.2677  18.2987  18.7250  19.4036  20.5470  20.6659
    23.1684  23.6431  26.0020  27.6052  29.3764  31.1784  31.1851  31.7980
    31.8057  34.2515  34.6679  35.6012  37.1278  38.1546  38.5649  39.7678

          k =-0.1875 0.6875-0.0625 (  3839 PWs)   bands (ev):

    -5.8141  -0.5445   1.9302   2.3844   6.9500   7.8706  10.9072  12.2920
    13.6237  15.8451  17.1673  18.0705  18.8289  19.7147  20.9822  21.7392
    22.6675  23.6225  26.0167  26.9808  28.9275  29.2690  30.4651  30.9900
    31.9469  33.5414  34.3334  34.8320  36.0262  37.1156  38.7848  39.0604

          k = 0.6875-0.1875 0.8125 (  3837 PWs)   bands (ev):

    -5.3164  -1.2977   1.1875   2.3455   7.1264   9.1293  10.6987  12.0845
    13.7946  15.7031  16.8556  17.8639  18.6092  21.0669  21.7270  22.6646
    23.5978  24.4652  25.4822  26.2035  27.7045  29.0562  29.7400  30.8218
    31.4581  32.6050  32.9777  34.5732  35.3608  36.3217  37.4608  38.6322

          k = 0.5625-0.0625 0.6875 (  3827 PWs)   bands (ev):

    -5.3521  -1.2372   0.8782   2.6581   7.4652   9.7795  10.6465  11.8829
    12.8335  14.0512  17.6846  18.6022  19.3553  20.3346  20.6290  22.7635
    24.7263  25.3638  26.0601  27.0099  27.6562  28.3936  29.4668  29.9966
    31.3365  31.9567  32.9052  34.3177  36.0402  36.7705  37.1174  39.1157

          k = 0.4375 0.0625 0.5625 (  3830 PWs)   bands (ev):

    -5.8694  -0.6540   1.4414   3.1721   7.8326   9.2109   9.9277  10.9736
    12.7805  15.2891  16.6665  17.0843  18.6521  20.5280  21.9105  22.5849
    23.7313  24.8032  25.8671  27.9225  28.3350  29.4176  29.7453  30.4526
    31.7841  32.8254  34.5089  35.6429  36.1301  36.9784  37.6713  38.3911

          k = 0.3125 0.1875 0.4375 (  3823 PWs)   bands (ev):

    -6.3875  -0.1189   2.8385   3.5442   7.0813   8.9785   9.8274  10.4815
    12.9019  14.3380  14.8408  18.0895  19.5074  20.1893  20.7894  21.8404
    22.4356  25.3740  26.5141  27.6493  29.6050  30.1101  31.1857  31.9279
    32.9120  33.7832  34.6052  35.5712  36.2148  37.1233  38.0164  38.8078

          k =-0.0625 0.8125 0.0625 (  3840 PWs)   bands (ev):

    -5.4225  -1.1214   1.9440   2.1025   6.2683   7.0533  12.9021  13.3365
    14.1438  15.8334  17.3956  17.6382  19.2465  20.2324  21.1849  21.8413
    22.0991  22.9997  25.6484  26.8378  27.3516  27.7437  30.1838  31.3990
    32.2088  32.5355  35.1123  35.5375  35.9572  37.2018  38.3262  40.3924

          k = 0.8125-0.0625 0.9375 (  3843 PWs)   bands (ev):

    -5.0850  -1.5319   1.4880   1.9118   6.5915   7.4226  12.7192  13.4492
    14.5398  15.9490  16.7847  17.3543  19.8120  20.3665  21.2080  22.4847
    23.3469  24.3860  25.0751  25.6314  26.5211  27.2451  28.6952  30.7844
    33.1629  33.7091  34.4022  34.5895  35.8409  37.2593  38.4246  38.8445

          k = 0.6875 0.0625 0.8125 (  3843 PWs)   bands (ev):

    -5.1060  -1.4445   0.8766   2.2101   6.9972   9.1007  11.4975  12.2962
    13.4827  14.9720  17.6429  18.7358  19.3280  20.5137  21.4537  21.9373
    23.6349  24.9411  25.9133  26.3226  27.1573  28.0459  29.2791  30.5597
    31.0460  31.9302  33.7104  34.9104  36.0299  36.4957  37.0539  38.5800

          k = 0.5625 0.1875 0.6875 (  3838 PWs)   bands (ev):

    -5.4272  -1.3962   1.3476   2.7557   7.5005   9.1535  10.6959  11.7191
    13.2570  14.7656  16.4641  17.6719  19.4964  20.1388  21.4734  23.2456
    24.4988  25.4551  26.3350  26.8003  27.8627  28.2261  29.7816  30.6881
    31.5119  31.8812  33.2526  34.3570  35.3015  36.0168  37.3162  38.3423

          k = 0.4375 0.3125 0.5625 (  3825 PWs)   bands (ev):

    -5.7876  -1.3929   2.6428   3.2416   6.8983   8.9473   9.7221  11.7701
    13.9412  14.8438  15.9231  16.6552  18.2128  19.6739  22.0417  23.3522
    24.5190  26.0474  26.7798  27.6853  28.5137  28.7043  29.2735  31.1891
    32.4570  33.1050  33.2756  34.6369  34.9760  36.0394  36.3266  38.4884

          k =-0.0625-0.9375 0.0625 (  3854 PWs)   bands (ev):

    -5.1040  -1.5711   1.8049   1.9782   6.1672   6.8491  13.7491  14.1146
    14.6165  15.9618  16.7026  16.9092  18.9672  20.8475  20.8655  23.0564
    23.5117  24.1195  24.8724  25.3802  25.6498  26.4914  29.2410  31.9226
    32.4617  33.5451  35.3803  35.5174  36.5646  36.7874  38.1912  39.2083

          k =-0.1875-0.8125-0.0625 (  3836 PWs)   bands (ev):

    -5.3792  -1.1499   1.6415   2.0684   6.7135   7.5837  11.7989  13.1945
    14.2053  16.2271  16.7709  17.7450  19.1575  20.2919  21.3493  21.7786
    23.1887  23.8183  25.1987  26.1634  27.3912  28.4955  29.9716  30.9422
    32.2363  33.1984  34.2544  34.5449  36.1629  36.6842  38.5627  38.9305

          k =-0.3125-0.6875-0.1875 (  3832 PWs)   bands (ev):

    -5.6565  -1.0193   1.7095   2.6224   7.3327   9.0415  10.1815  11.3484
    14.0380  16.0752  16.2893  16.9989  18.3052  20.8223  21.8034  22.5499
    23.8690  24.8335  25.1877  26.4593  29.1249  29.3288  30.2701  30.7625
    31.9840  32.3336  33.3820  35.0834  35.6529  36.5702  37.4085  38.0608

          k =-0.0625-0.6875 0.0625 (  3843 PWs)   bands (ev):

    -5.8828  -0.4055   2.2172   2.3457   6.4814   7.4163  11.9275  12.3995
    13.2641  15.4153  17.9716  18.6930  19.0612  19.6207  20.4015  20.9626
    22.3056  22.4964  26.7042  27.5445  29.1856  29.4505  29.8856  31.4197
    31.8199  32.5984  34.7123  35.5922  36.4207  37.8305  38.5917  40.4313

          k =-0.1875-0.5625-0.0625 (  3835 PWs)   bands (ev):

    -6.2638   0.1570   2.3241   2.8483   7.2783   8.1387  10.2089  11.3357
    12.8306  15.1383  16.6590  17.8444  19.2772  19.6576  20.3662  21.2067
    23.2559  24.6781  25.8136  27.0566  28.8972  30.1841  31.2911  32.1557
    32.5257  34.3014  34.9624  35.2628  36.0399  37.6074  38.6252  38.7315

          k =-0.0625-0.4375 0.0625 (  3831 PWs)   bands (ev):

    -6.7622   1.3171   3.1067   3.1301   7.2403   7.9179  10.3786  10.5672
    11.7219  14.4909  16.2510  17.1569  17.8652  18.5906  21.9115  21.9259
    23.9035  24.5840  24.9960  27.1449  30.3958  30.8714  31.4502  33.2688
    33.6406  34.8059  35.3267  36.2948  37.2715  37.3950  38.2828  40.0716

          k =-0.1875 0.1875 0.1875 (  3798 PWs)   bands (ev):

    -7.0896   1.8163   4.0163   4.0163   6.6057   9.1426   9.1426   9.3578
    13.0781  13.0781  14.1855  15.9824  18.4058  18.4058  21.3696  23.6317
    23.7461  23.7461  28.3884  28.3884  30.0602  30.0602  31.0698  32.3288
    34.4717  34.4717  35.5913  37.9196  37.9196  39.1814  39.1814  39.5607

          k =-0.3125 0.3125 0.0625 (  3821 PWs)   bands (ev):

    -6.7714   0.9972   2.8193   3.9922   7.3285   9.0208   9.2864   9.9609
    12.2828  13.8889  15.3056  16.6145  18.5239  20.5050  20.5192  22.7066
    23.8563  24.0217  25.8769  27.4846  29.9256  30.9915  32.1572  32.6220
    33.3594  34.6791  35.0654  36.7567  37.1868  37.2761  39.0782  39.5564

          k =-0.4375 0.4375-0.0625 (  3826 PWs)   bands (ev):

    -6.1984  -0.1857   1.8448   3.5733   7.6507   9.4346   9.8708  10.1017
    12.3919  15.4225  16.0884  16.8930  18.3677  20.8361  21.8655  22.1530
    23.5245  24.6506  25.7785  27.0618  29.8095  30.1089  30.2862  31.4836
    31.8296  33.3423  35.2427  36.0428  36.4760  37.0981  38.2338  38.8559

          k = 0.4375-0.4375 0.8125 (  3826 PWs)   bands (ev):

    -5.6207  -1.2851   1.6380   3.1100   7.3758   9.1781  10.2261  11.6068
    13.7630  14.2464  15.9220  17.6373  19.7839  19.8190  20.8310  24.0025
    24.1127  26.3121  26.4687  26.6235  27.6504  28.7127  30.1026  31.0617
    31.3298  32.4195  32.4263  34.7523  36.3758  36.4966  37.5678  37.7434

          k = 0.3125-0.3125 0.6875 (  3826 PWs)   bands (ev):

    -5.6113  -1.3072   1.8975   2.8341   7.2047   9.0930  10.5354  11.0269
    14.1503  15.6083  16.1723  16.9110  17.7825  21.0971  22.3267  22.5868
    24.1087  25.1779  25.8640  26.6077  28.6209  29.5734  29.8647  31.3770
    31.7933  32.4145  32.4763  33.8988  36.0520  36.8100  37.4442  37.5891

          k = 0.1875-0.1875 0.5625 (  3835 PWs)   bands (ev):

    -6.1843  -0.1805   2.4631   2.8397   7.2350   8.6228  10.1080  10.8155
    13.3897  15.1387  15.8064  18.3708  19.0470  19.9552  20.1782  21.7496
    23.3138  25.2144  25.7310  27.0269  28.4214  30.9456  31.1260  31.8675
    32.1901  33.7282  34.2046  35.9032  35.9729  37.2283  38.0952  38.6309

          k =-0.1875 0.4375 0.1875 (  3831 PWs)   bands (ev):

    -6.5690   0.4399   3.1650   3.2276   7.2483   8.5944  10.0690  10.1646
    12.6586  14.3271  14.9136  17.8807  19.2325  20.2808  20.6522  21.0277
    23.4500  24.9533  26.5566  26.5840  29.9532  30.8167  31.3379  32.6884
    33.6725  33.8019  34.8872  35.9471  36.4590  37.3067  38.8957  39.1256

          k =-0.3125 0.5625 0.0625 (  3830 PWs)   bands (ev):

    -6.0976  -0.2463   1.8811   3.0564   7.9415   8.5612   9.5979  11.1791
    12.8487  15.7671  16.3034  17.1485  18.6115  20.3059  21.1977  22.3690
    23.2699  24.6647  25.9366  27.3767  28.4711  29.2764  30.6863  31.7488
    32.9526  33.7207  34.5632  35.5214  36.1520  37.0639  37.6891  38.4823

          k = 0.5625-0.3125 0.9375 (  3833 PWs)   bands (ev):

    -5.5232  -1.0282   1.1554   2.5756   8.2183   8.9396   9.8080  12.1064
    13.0442  14.8648  17.3215  17.9160  19.0272  19.8898  21.3632  23.4612
    23.9736  25.3674  25.5163  26.4010  27.9511  29.0290  29.7366  30.5381
    31.4052  32.6538  34.0272  34.4163  35.6817  36.1994  37.1330  38.0065

          k = 0.4375-0.1875 0.8125 (  3839 PWs)   bands (ev):

    -5.2891  -1.3672   1.1339   2.2982   7.9218   9.0275  10.4781  12.0965
    12.9390  15.8552  16.5436  17.6338  19.5833  20.5105  21.7344  22.6129
    24.1135  24.8390  26.4534  26.7028  27.2535  28.5210  29.3858  30.3786
    31.6865  32.7227  33.3197  34.2709  34.9642  35.8680  36.2967  38.0676

          k = 0.3125-0.0625 0.6875 (  3835 PWs)   bands (ev):

    -5.6872  -0.7761   1.5357   2.4581   7.7511   8.5740   9.8157  12.2315
    13.4223  16.0370  16.6909  17.5934  18.8712  19.6715  21.6775  22.5059
    23.7676  24.5396  25.2619  26.6137  28.3658  28.9838  30.1604  31.3025
    32.4702  32.9344  33.3323  35.3611  35.8828  36.4668  37.1650  38.4124

          k =-0.1875 0.6875 0.1875 (  3832 PWs)   bands (ev):

    -5.7573  -0.7388   1.8276   2.5214   6.9530   8.5049  10.6970  11.5299
    14.2011  15.8180  16.7685  17.8108  18.0551  20.7297  20.9567  22.2765
    23.2758  24.0643  25.3932  26.5641  29.1483  29.9194  30.2566  31.0909
    31.6591  33.2334  33.6235  34.2678  36.6923  37.5757  37.6712  38.7913

          k = 0.6875-0.1875 1.0625 (  3835 PWs)   bands (ev):

    -5.3047  -1.2097   1.3043   1.9788   7.5236   8.4244  10.5272  12.9434
    13.7037  16.0058  16.9367  18.0273  18.8672  20.5040  21.1712  22.8284
    23.7767  24.6254  25.3601  25.7440  26.8207  28.8923  30.2357  31.1027
    32.0735  32.5062  32.7893  34.8392  35.7351  36.2347  37.3432  38.3663

          k = 0.5625-0.0625 0.9375 (  3832 PWs)   bands (ev):

    -5.0379  -1.4287   1.0235   1.5561   8.3829   9.1785  10.2741  11.2470
    14.5496  16.1282  16.7509  17.9241  19.5536  21.2760  21.9922  22.4323
    23.3745  23.9756  24.7569  26.5966  28.0759  29.1532  29.7312  30.5941
    30.7635  31.1736  32.8428  33.8704  35.1182  36.9648  37.5649  38.7264

          k = 0.4375 0.0625 0.8125 (  3836 PWs)   bands (ev):

    -5.2203  -1.2913   1.0164   1.9792   8.4340   9.0015   9.8180  12.1618
    13.4810  15.5094  17.3058  18.2638  19.0697  20.7878  20.9000  23.3114
    24.0168  24.5041  25.8512  26.3610  26.7576  28.8143  29.8544  30.9470
    31.6160  32.2748  32.9817  33.6772  34.8357  36.4780  37.3034  38.1314

          k =-0.1875-1.0625 0.1875 (  3847 PWs)   bands (ev):

    -5.0886  -1.4998   1.1056   2.1827   6.5556   8.1848  12.5325  12.8815
    13.9130  15.2039  17.3628  18.2225  19.7029  20.3089  21.3622  21.8617
    23.7970  24.4365  25.8264  26.1501  26.2196  27.5957  28.5971  31.5476
    31.8768  32.4558  33.7391  35.1070  36.8265  36.9706  37.8087  38.8570

          k =-0.3125-0.9375 0.0625 (  3834 PWs)   bands (ev):

    -5.0577  -1.4731   1.1922   1.7119   7.3974   8.3167  11.4093  12.3490
    14.5260  16.0429  16.7971  17.7293  19.8384  20.8040  21.8330  22.1708
    23.0583  24.1672  25.4481  26.1569  27.0970  28.7041  28.8594  29.8996
    31.9818  32.4612  34.0699  34.7078  35.7625  36.0785  37.7453  38.4045

          k =-0.1875-0.8125 0.1875 (  3844 PWs)   bands (ev):

    -5.3537  -1.2073   1.3549   2.2977   6.6965   8.3047  11.6057  12.2708
    14.4773  15.7671  16.9707  17.8491  18.4968  21.0060  21.5436  22.0830
    23.5858  23.9347  25.0275  26.0233  27.9522  28.5074  29.7275  31.8091
    31.9396  32.2654  33.6497  33.8240  36.7019  37.2728  37.7271  38.9490

          k =-0.3125 0.3125 0.3125 (  3825 PWs)   bands (ev):

    -6.4899  -0.1286   3.6391   3.6391   6.3674   9.3828   9.3828  10.8877
    13.5324  13.5324  13.6363  18.5307  20.3508  20.3508  20.8294  21.3551
    21.3551  24.6206  28.4334  28.4334  30.3054  30.3932  30.3932  32.3043
    32.3043  32.9342  33.5015  37.2945  37.2945  37.4671  38.2332  38.2332

          k =-0.4375 0.4375 0.1875 (  3821 PWs)   bands (ev):

    -6.1342  -0.6239   2.4131   3.5505   7.1521   9.2253   9.6122  10.9465
    13.0157  14.5086  15.6613  17.1881  19.6285  20.6185  20.8649  21.6599
    23.3837  26.1181  26.2789  27.7152  29.0469  29.8109  29.8578  31.6234
    32.1550  33.9885  34.4488  35.0763  35.4727  37.0283  37.7388  38.0834

          k = 0.4375-0.4375 1.0625 (  3837 PWs)   bands (ev):

    -5.6075  -0.9959   1.0889   3.0594   7.4600   9.7874  10.6540  10.9146
    13.0524  14.0853  17.1116  17.9980  19.0670  20.4332  21.1288  23.1637
    23.9296  25.4995  26.1449  27.3648  28.1816  29.1291  29.5969  30.2069
    30.5980  32.4056  33.1245  34.7474  37.0579  37.0953  38.1983  38.4744

          k = 0.3125-0.3125 0.9375 (  3833 PWs)   bands (ev):

    -5.2058  -1.3735   0.7703   2.5635   6.9841   9.7983  11.6514  11.6653
    12.9204  14.0708  18.0717  18.8109  19.7504  19.9230  20.9248  22.1525
    24.2437  25.8355  25.8360  26.9868  27.5107  27.7550  29.6486  29.6810
    31.1245  32.8054  32.8578  33.1733  36.4306  37.1589  38.0866  38.7493

          k =-0.3125 0.5625 0.3125 (  3827 PWs)   bands (ev):

    -5.9230  -1.0609   2.6758   3.0784   7.0398   8.8964  10.0103  11.1094
    13.7875  15.0995  15.4820  17.5216  17.9253  20.9001  21.4848  22.0501
    23.7058  26.1261  26.9848  27.2537  28.2194  29.5569  29.9056  31.7012
    32.1936  33.1712  33.8316  34.3185  35.7762  36.3089  37.4759  37.4759

          k = 0.5625-0.3125 1.1875 (  3831 PWs)   bands (ev):

    -5.5362  -1.2648   1.5415   2.7051   7.8792   8.6758  10.4545  11.5556
    13.4753  15.3609  16.2378  17.2658  18.9570  20.8686  21.0967  23.5278
    24.0590  25.3772  26.0358  26.5686  28.3142  28.8084  29.7800  30.4497
    31.3728  33.0534  33.8745  34.1782  35.0550  36.5596  36.9016  37.4362

          k = 0.4375-0.1875 1.0625 (  3831 PWs)   bands (ev):

    -5.1493  -1.3739   0.8529   2.0883   7.8366   9.5469  10.4776  11.6771
    13.4206  15.1380  17.5576  18.5078  19.3584  20.6003  21.1967  22.6448
    23.8906  24.7701  25.8673  26.7480  27.3200  28.8340  29.5173  30.0836
    30.8632  31.9466  33.4289  34.5347  35.1847  35.7428  36.8504  39.2152

          k =-0.3125-1.1875 0.3125 (  3839 PWs)   bands (ev):

    -5.3528  -1.3920   1.2057   2.6565   7.0910   9.5493  11.1423  11.1597
    13.7447  14.7864  16.9538  17.7586  18.7613  20.8245  22.0394  22.7074
    23.8277  25.3657  25.3920  26.8191  27.9932  28.9226  30.0268  30.0417
    31.1152  32.7146  33.1904  33.8902  34.5467  37.0074  38.2059  38.5267

          k =-0.4375 0.4375 0.4375 (  3813 PWs)   bands (ev):

    -5.8797  -1.4586   3.4169   3.4169   6.1640   9.3004   9.3004  11.7619
    14.1364  15.0370  15.0370  17.8515  18.0053  18.0053  22.4693  23.8891
    23.8891  26.4162  27.4356  27.4356  28.6361  29.6189  29.6189  31.4548
    31.4548  32.1955  33.5389  34.9141  36.2000  36.2000  37.3184  37.3184

          k = 0.4375-0.4375 1.3125 (  3827 PWs)   bands (ev):

    -5.6632  -1.5432   2.3937   3.2004   7.0026   8.9580   9.7631  12.0082
    14.2894  14.7578  15.5150  16.9771  18.3898  19.1431  22.5401  24.2930
    24.4453  25.6626  27.0720  27.6058  27.6780  27.8237  30.3868  31.2213
    32.0409  32.6704  33.1160  33.3162  35.5516  36.2733  37.0794  37.4835

     highest occupied, lowest unoccupied level (ev):     4.3555    6.0589

!    total energy              =     -17.41987618 Ry
     estimated scf accuracy    <          1.4E-11 Ry

     The total energy is the sum of the following terms:
     one-electron contribution =       2.01784954 Ry
     hartree contribution      =       2.02634321 Ry
     xc contribution           =      -4.83926779 Ry
     ewald contribution        =     -16.62480114 Ry

     convergence has been achieved in  10 iterations

     Forces acting on atoms (cartesian axes, Ry/au):

     atom    1 type  1   force =     0.00000000    0.00000000    0.00000000
     atom    2 type  2   force =     0.00000000    0.00000000    0.00000000

     Total force =     0.000000     Total SCF correction =     0.000000


     Computing stress (Cartesian axis) and pressure

          total   stress  (Ry/bohr**3)                   (kbar)     P=       -0.03
  -0.00000022  -0.00000000  -0.00000000           -0.03       -0.00       -0.00
  -0.00000000  -0.00000022  -0.00000000           -0.00       -0.03       -0.00
   0.00000000   0.00000000  -0.00000022            0.00        0.00       -0.03


     Writing all to output data dir ./work/InP.save/
 
     init_run     :      0.40s CPU      0.46s WALL (       1 calls)
     electrons    :     15.69s CPU     16.15s WALL (       1 calls)
     forces       :      0.03s CPU      0.03s WALL (       1 calls)
     stress       :      0.11s CPU      0.11s WALL (       1 calls)

     Called by init_run:
     wfcinit      :      0.36s CPU      0.40s WALL (       1 calls)
     potinit      :      0.01s CPU      0.01s WALL (       1 calls)
     hinit0       :      0.02s CPU      0.04s WALL (       1 calls)

     Called by electrons:
     c_bands      :     13.77s CPU     14.17s WALL (      11 calls)
     sum_band     :      1.90s CPU      1.96s WALL (      11 calls)
     v_of_rho     :      0.01s CPU      0.01s WALL (      11 calls)
     mix_rho      :      0.01s CPU      0.01s WALL (      11 calls)

     Called by c_bands:
     init_us_2    :      0.08s CPU      0.09s WALL (    1500 calls)
     init_us_2:cp :      0.08s CPU      0.08s WALL (    1500 calls)
     cegterg      :     13.55s CPU     13.95s WALL (     660 calls)

     Called by *egterg:
     cdiaghg      :      3.25s CPU      3.34s WALL (    2968 calls)
     h_psi        :      9.59s CPU      9.91s WALL (    3088 calls)
     g_psi        :      0.04s CPU      0.04s WALL (    2368 calls)

     Called by h_psi:
     h_psi:calbec :      0.14s CPU      0.15s WALL (    3088 calls)
     vloc_psi     :      9.32s CPU      9.63s WALL (    3088 calls)
     add_vuspsi   :      0.09s CPU      0.09s WALL (    3088 calls)

     General routines
     calbec       :      0.16s CPU      0.16s WALL (    3388 calls)
     fft          :      0.01s CPU      0.03s WALL (      38 calls)
     ffts         :      0.00s CPU      0.00s WALL (      11 calls)
     fftw         :     10.22s CPU     10.56s WALL (  133264 calls)
 
     Parallel routines
 
     PWSCF        :     16.48s CPU     17.20s WALL

 
   This run was terminated on:  20:30:30  30Jan2023            

=------------------------------------------------------------------------------=
   JOB DONE.
=------------------------------------------------------------------------------=
