
     Program PWSCF v.7.1 starts on 24Feb2023 at  3:48:13 

     This program is part of the open-source Quantum ESPRESSO suite
     for quantum simulation of materials; please cite
         "P. Giannozzi et al., J. Phys.:Condens. Matter 21 395502 (2009);
         "P. Giannozzi et al., J. Phys.:Condens. Matter 29 465901 (2017);
         "P. Giannozzi et al., J. Chem. Phys. 152 154105 (2020);
          URL http://www.quantum-espresso.org", 
     in publications or presentations arising from this work. More details at
     http://www.quantum-espresso.org/quote

     Parallel version (MPI), running on    36 processors

     MPI processes distributed on     1 nodes
     3504 MiB available memory on the printing compute node when the environment starts
 
     Waiting for input...
     Reading input from standard input

     Current dimensions of program PWSCF are:
     Max number of different atomic species (ntypx) = 10
     Max number of k-points (npk) =  40000
     Max angular momentum in pseudopotentials (lmaxx) =  4
 
     K-points division:     npool     =       2
     R & G space division:  proc/nbgrp/npool/nimage =      18
     Subspace diagonalization in iterative solution of the eigenvalue problem:
     a serial algorithm will be used

 
     Parallelization info
     --------------------
     sticks:   dense  smooth     PW     G-vecs:    dense   smooth      PW
     Min          78      78     23                 1927     1927     314
     Max          79      79     24                 1931     1931     317
     Sum        1405    1405    421                34717    34717    5673
 
     Using Slab Decomposition
 


     bravais-lattice index     =            2
     lattice parameter (alat)  =      11.2994  a.u.
     unit-cell volume          =     360.6683 (a.u.)^3
     number of atoms/cell      =            2
     number of atomic types    =            2
     number of electrons       =         8.00
     number of Kohn-Sham states=           32
     kinetic-energy cutoff     =      80.0000  Ry
     charge density cutoff     =     320.0000  Ry
     scf convergence threshold =      1.0E-09
     mixing beta               =       0.1500
     number of iterations used =            8  plain     mixing
     Exchange-correlation= SLA-PZ-NOGX-NOGC
                           (   1   1   0   0   0   0   0)

     celldm(1)=  11.299416  celldm(2)=   0.000000  celldm(3)=   0.000000
     celldm(4)=   0.000000  celldm(5)=   0.000000  celldm(6)=   0.000000

     crystal axes: (cart. coord. in units of alat)
               a(1) = (  -0.500000   0.000000   0.500000 )  
               a(2) = (   0.000000   0.500000   0.500000 )  
               a(3) = (  -0.500000   0.500000   0.000000 )  

     reciprocal axes: (cart. coord. in units 2 pi/alat)
               b(1) = ( -1.000000 -1.000000  1.000000 )  
               b(2) = (  1.000000  1.000000  1.000000 )  
               b(3) = ( -1.000000  1.000000 -1.000000 )  


     PseudoPot. # 1 for Ga read from file:
     ../pseudo/Ga.pz-hgh.upf
     MD5 check sum: 9a76aebca20297769771d7f9bb2cf22c
     Pseudo is Norm-conserving, Zval =  3.0
     Generated in analytical, separable form
     Using radial grid of 1205 points,  6 beta functions with: 
                l(1) =   0
                l(2) =   0
                l(3) =   0
                l(4) =   1
                l(5) =   1
                l(6) =   2

     PseudoPot. # 2 for Sb read from file:
     ../pseudo/Sb.pz-hgh.upf
     MD5 check sum: e4b141fc27dbe73d740b8d5d3061d4bd
     Pseudo is Norm-conserving, Zval =  5.0
     Generated in analytical, separable form
     Using radial grid of 1243 points,  6 beta functions with: 
                l(1) =   0
                l(2) =   0
                l(3) =   0
                l(4) =   1
                l(5) =   1
                l(6) =   2

     atomic species   valence    mass     pseudopotential
        Ga             3.00    69.72300     Ga( 1.00)
        Sb             5.00   121.76000     Sb( 1.00)

     24 Sym. Ops. (no inversion) found



   Cartesian axes

     site n.     atom                  positions (alat units)
         1           Ga  tau(   1) = (   0.0000000   0.0000000   0.0000000  )
         2           Sb  tau(   2) = (  -0.2500000   0.2500000   0.2500000  )

     number of k points=    60
                       cart. coord. in units 2pi/alat
        k(    1) = (  -0.0625000   0.0625000   0.0625000), wk =   0.0078125
        k(    2) = (  -0.1875000   0.1875000  -0.0625000), wk =   0.0234375
        k(    3) = (  -0.3125000   0.3125000  -0.1875000), wk =   0.0234375
        k(    4) = (  -0.4375000   0.4375000  -0.3125000), wk =   0.0234375
        k(    5) = (   0.4375000  -0.4375000   0.5625000), wk =   0.0234375
        k(    6) = (   0.3125000  -0.3125000   0.4375000), wk =   0.0234375
        k(    7) = (   0.1875000  -0.1875000   0.3125000), wk =   0.0234375
        k(    8) = (   0.0625000  -0.0625000   0.1875000), wk =   0.0234375
        k(    9) = (  -0.0625000   0.3125000   0.0625000), wk =   0.0234375
        k(   10) = (  -0.1875000   0.4375000  -0.0625000), wk =   0.0468750
        k(   11) = (  -0.3125000   0.5625000  -0.1875000), wk =   0.0468750
        k(   12) = (   0.5625000  -0.3125000   0.6875000), wk =   0.0468750
        k(   13) = (   0.4375000  -0.1875000   0.5625000), wk =   0.0468750
        k(   14) = (   0.3125000  -0.0625000   0.4375000), wk =   0.0468750
        k(   15) = (   0.1875000   0.0625000   0.3125000), wk =   0.0468750
        k(   16) = (  -0.0625000   0.5625000   0.0625000), wk =   0.0234375
        k(   17) = (  -0.1875000   0.6875000  -0.0625000), wk =   0.0468750
        k(   18) = (   0.6875000  -0.1875000   0.8125000), wk =   0.0468750
        k(   19) = (   0.5625000  -0.0625000   0.6875000), wk =   0.0468750
        k(   20) = (   0.4375000   0.0625000   0.5625000), wk =   0.0468750
        k(   21) = (   0.3125000   0.1875000   0.4375000), wk =   0.0468750
        k(   22) = (  -0.0625000   0.8125000   0.0625000), wk =   0.0234375
        k(   23) = (   0.8125000  -0.0625000   0.9375000), wk =   0.0468750
        k(   24) = (   0.6875000   0.0625000   0.8125000), wk =   0.0468750
        k(   25) = (   0.5625000   0.1875000   0.6875000), wk =   0.0468750
        k(   26) = (   0.4375000   0.3125000   0.5625000), wk =   0.0468750
        k(   27) = (  -0.0625000  -0.9375000   0.0625000), wk =   0.0234375
        k(   28) = (  -0.1875000  -0.8125000  -0.0625000), wk =   0.0468750
        k(   29) = (  -0.3125000  -0.6875000  -0.1875000), wk =   0.0468750
        k(   30) = (  -0.0625000  -0.6875000   0.0625000), wk =   0.0234375
        k(   31) = (  -0.1875000  -0.5625000  -0.0625000), wk =   0.0468750
        k(   32) = (  -0.0625000  -0.4375000   0.0625000), wk =   0.0234375
        k(   33) = (  -0.1875000   0.1875000   0.1875000), wk =   0.0078125
        k(   34) = (  -0.3125000   0.3125000   0.0625000), wk =   0.0234375
        k(   35) = (  -0.4375000   0.4375000  -0.0625000), wk =   0.0234375
        k(   36) = (   0.4375000  -0.4375000   0.8125000), wk =   0.0234375
        k(   37) = (   0.3125000  -0.3125000   0.6875000), wk =   0.0234375
        k(   38) = (   0.1875000  -0.1875000   0.5625000), wk =   0.0234375
        k(   39) = (  -0.1875000   0.4375000   0.1875000), wk =   0.0234375
        k(   40) = (  -0.3125000   0.5625000   0.0625000), wk =   0.0468750
        k(   41) = (   0.5625000  -0.3125000   0.9375000), wk =   0.0468750
        k(   42) = (   0.4375000  -0.1875000   0.8125000), wk =   0.0468750
        k(   43) = (   0.3125000  -0.0625000   0.6875000), wk =   0.0468750
        k(   44) = (  -0.1875000   0.6875000   0.1875000), wk =   0.0234375
        k(   45) = (   0.6875000  -0.1875000   1.0625000), wk =   0.0468750
        k(   46) = (   0.5625000  -0.0625000   0.9375000), wk =   0.0468750
        k(   47) = (   0.4375000   0.0625000   0.8125000), wk =   0.0468750
        k(   48) = (  -0.1875000  -1.0625000   0.1875000), wk =   0.0234375
        k(   49) = (  -0.3125000  -0.9375000   0.0625000), wk =   0.0468750
        k(   50) = (  -0.1875000  -0.8125000   0.1875000), wk =   0.0234375
        k(   51) = (  -0.3125000   0.3125000   0.3125000), wk =   0.0078125
        k(   52) = (  -0.4375000   0.4375000   0.1875000), wk =   0.0234375
        k(   53) = (   0.4375000  -0.4375000   1.0625000), wk =   0.0234375
        k(   54) = (   0.3125000  -0.3125000   0.9375000), wk =   0.0234375
        k(   55) = (  -0.3125000   0.5625000   0.3125000), wk =   0.0234375
        k(   56) = (   0.5625000  -0.3125000   1.1875000), wk =   0.0468750
        k(   57) = (   0.4375000  -0.1875000   1.0625000), wk =   0.0468750
        k(   58) = (  -0.3125000  -1.1875000   0.3125000), wk =   0.0234375
        k(   59) = (  -0.4375000   0.4375000   0.4375000), wk =   0.0078125
        k(   60) = (   0.4375000  -0.4375000   1.3125000), wk =   0.0234375

     Dense  grid:    34717 G-vectors     FFT dimensions: (  45,  45,  45)

     Estimated max dynamical RAM per process >       8.59 MB

     Estimated total dynamical RAM >     300.73 MB

     Initial potential from superposition of free atoms

     starting charge       6.0000, renormalised to       8.0000
     Starting wfcs are   18 randomized atomic wfcs +   14 random wfcs

     total cpu time spent up to now is        0.8 secs

     Self-consistent Calculation

     iteration #  1     ecut=    80.00 Ry     beta= 0.15
     Davidson diagonalization with overlap
     ethr =  1.00E-02,  avg # of iterations =  6.8

     total cpu time spent up to now is        3.1 secs

     total energy              =     -15.79370582 Ry
     estimated scf accuracy    <       0.09850159 Ry

     iteration #  2     ecut=    80.00 Ry     beta= 0.15
     Davidson diagonalization with overlap
     ethr =  1.23E-03,  avg # of iterations =  1.6

     total cpu time spent up to now is        4.2 secs

     total energy              =     -15.76876484 Ry
     estimated scf accuracy    <       0.06240138 Ry

     iteration #  3     ecut=    80.00 Ry     beta= 0.15
     Davidson diagonalization with overlap
     ethr =  7.80E-04,  avg # of iterations =  1.6

     total cpu time spent up to now is        5.2 secs

     total energy              =     -15.77417631 Ry
     estimated scf accuracy    <       0.00369174 Ry

     iteration #  4     ecut=    80.00 Ry     beta= 0.15
     Davidson diagonalization with overlap
     ethr =  4.61E-05,  avg # of iterations =  5.1

     total cpu time spent up to now is        6.5 secs

     total energy              =     -15.77447296 Ry
     estimated scf accuracy    <       0.00015654 Ry

     iteration #  5     ecut=    80.00 Ry     beta= 0.15
     Davidson diagonalization with overlap
     ethr =  1.96E-06,  avg # of iterations =  6.0

     total cpu time spent up to now is        7.9 secs

     total energy              =     -15.77444381 Ry
     estimated scf accuracy    <       0.00009119 Ry

     iteration #  6     ecut=    80.00 Ry     beta= 0.15
     Davidson diagonalization with overlap
     ethr =  1.14E-06,  avg # of iterations =  1.4

     total cpu time spent up to now is        8.9 secs

     total energy              =     -15.77444966 Ry
     estimated scf accuracy    <       0.00000006 Ry

     iteration #  7     ecut=    80.00 Ry     beta= 0.15
     Davidson diagonalization with overlap
     ethr =  7.30E-10,  avg # of iterations =  8.4

     total cpu time spent up to now is       11.0 secs

     total energy              =     -15.77444966 Ry
     estimated scf accuracy    <       0.00000006 Ry

     iteration #  8     ecut=    80.00 Ry     beta= 0.15
     Davidson diagonalization with overlap
     ethr =  7.14E-10,  avg # of iterations =  1.0

     total cpu time spent up to now is       12.0 secs

     total energy              =     -15.77444963 Ry
     estimated scf accuracy    <       0.00000006 Ry

     iteration #  9     ecut=    80.00 Ry     beta= 0.15
     Davidson diagonalization with overlap
     ethr =  6.96E-10,  avg # of iterations =  1.0

     total cpu time spent up to now is       12.9 secs

     total energy              =     -15.77444964 Ry
     estimated scf accuracy    <       0.00000003 Ry

     iteration # 10     ecut=    80.00 Ry     beta= 0.15
     Davidson diagonalization with overlap
     ethr =  3.76E-10,  avg # of iterations =  1.2

     total cpu time spent up to now is       13.9 secs

     total energy              =     -15.77444967 Ry
     estimated scf accuracy    <       0.00000002 Ry

     iteration # 11     ecut=    80.00 Ry     beta= 0.15
     Davidson diagonalization with overlap
     ethr =  2.57E-10,  avg # of iterations =  1.0

     total cpu time spent up to now is       14.9 secs

     End of self-consistent calculation

          k =-0.0625 0.0625 0.0625 (  4357 PWs)   bands (ev):

    -6.9126   4.1239   4.8896   4.8896   6.0886   7.9585   7.9585   8.0018
    11.2171  13.5604  13.5604  14.6603  15.4636  15.4636  17.8737  27.0803
    27.0803  27.1204  28.7002  28.7002  29.0377  29.3154  29.3154  30.0919
    31.1758  31.1758  36.3158  38.6578  38.9680  38.9680  40.0468  40.0468

          k =-0.1875 0.1875-0.0625 (  4384 PWs)   bands (ev):

    -6.6928   2.5122   4.1194   4.7556   6.6001   8.1724   8.2878   9.2265
    12.2658  12.5011  13.0962  14.7119  16.1121  17.4418  19.4649  23.5274
    25.3649  25.3796  27.3156  27.8493  29.0417  30.1021  31.2986  31.9769
    33.3097  34.4138  35.1680  35.7881  36.3903  37.0318  37.4426  38.0667

          k =-0.3125 0.3125-0.1875 (  4358 PWs)   bands (ev):

    -6.1744   0.4721   3.5864   4.2858   6.3024   8.6846   8.9399  10.7131
    12.4395  12.5568  13.7459  15.6344  18.6075  19.9394  20.2737  21.9301
    22.0252  22.4899  27.7984  28.2934  29.5283  30.5040  30.8354  31.3603
    31.9142  32.7729  33.4667  34.7223  34.7290  36.3624  36.6447  37.1304

          k =-0.4375 0.4375-0.3125 (  4359 PWs)   bands (ev):

    -5.5056  -1.1398   3.3286   3.8696   6.0254   8.8597   8.8731  11.8519
    13.0597  13.6859  15.2118  16.5744  18.2118  18.9977  20.6043  21.6968
    22.9239  25.1565  26.7928  27.4722  28.4299  28.5306  29.1906  30.2105
    31.1055  31.8387  32.3028  33.0512  33.1768  34.9392  35.0462  35.8409

          k = 0.4375-0.4375 0.5625 (  4374 PWs)   bands (ev):

    -5.2207  -1.6664   3.3504   3.6592   5.9628   8.6843   8.9878  11.8149
    14.0750  15.1881  15.5488  16.1110  16.7287  17.7298  22.0539  23.8501
    24.1459  24.8628  25.3750  26.3074  27.7413  28.7025  28.8948  29.4323
    30.4904  31.6313  32.2919  32.6198  32.8059  34.5347  34.7024  36.0732

          k = 0.3125-0.3125 0.4375 (  4361 PWs)   bands (ev):

    -5.7238  -0.6832   3.6312   3.7057   6.1314   8.6135   9.1760  11.5092
    12.5696  13.7016  14.3076  16.8911  18.6618  19.5887  20.7088  20.9467
    21.7215  24.2366  27.7793  28.2447  28.6159  29.1132  29.7967  30.2644
    31.1452  32.0832  32.8443  33.4740  33.6687  34.9892  35.4657  35.9108

          k = 0.1875-0.1875 0.3125 (  4370 PWs)   bands (ev):

    -6.3750   1.1304   4.0100   4.1096   6.4833   8.2854   9.1116  10.1321
    12.1796  12.8981  13.3576  14.9373  17.9045  18.7597  21.2293  21.7842
    22.0981  23.8524  27.6694  28.0005  29.3726  30.4412  31.5517  31.8736
    32.9768  33.5005  33.9792  35.3449  35.4300  36.3582  37.1604  37.1692

          k = 0.0625-0.0625 0.1875 (  4379 PWs)   bands (ev):

    -6.8018   3.2321   4.4969   4.5839   6.6771   7.6905   8.4939   8.6272
    11.8065  12.4993  13.7310  14.7527  15.6582  16.3787  18.8645  25.2217
    25.3721  26.9391  27.2946  27.7984  28.9424  29.8770  31.1748  31.2061
    32.2736  33.2113  35.9737  37.0899  37.1692  37.7866  38.2386  38.8456

          k =-0.0625 0.3125 0.0625 (  4381 PWs)   bands (ev):

    -6.5822   2.2453   3.9622   3.9798   6.9023   7.7955   9.3078   9.4195
    11.6672  12.7642  14.0635  15.2151  16.0605  17.0290  20.6303  23.4618
    23.6377  25.5704  25.8040  27.6784  29.1820  30.1949  32.0970  33.3043
    33.6350  34.2808  34.7117  35.2483  35.4320  36.0497  36.7113  37.9672

          k =-0.1875 0.4375-0.0625 (  4369 PWs)   bands (ev):

    -6.1599   0.8442   3.0157   3.7240   7.0538   8.0343   9.7361  10.0501
    12.3230  13.8524  14.3015  15.8331  17.2111  19.0849  20.2417  22.0178
    22.9579  24.1703  25.6554  26.5774  28.5394  30.4329  31.6347  32.1331
    33.3077  33.6603  33.9555  34.4055  35.0056  35.5583  36.1203  36.4705

          k =-0.3125 0.5625-0.1875 (  4359 PWs)   bands (ev):

    -5.5178  -0.7189   2.4547   3.3454   7.0397   8.5383   9.9153  10.4178
    13.7379  14.0154  15.8605  16.3326  18.1285  19.3564  20.2418  22.0259
    22.6900  25.0714  25.7058  26.5375  26.9318  29.0150  29.2683  29.9145
    31.3073  31.9128  32.8872  33.6381  34.0881  34.8577  35.2321  36.9767

          k = 0.5625-0.3125 0.6875 (  4360 PWs)   bands (ev):

    -5.0255  -1.6201   2.1530   3.2590   6.9699   8.5478   9.9414  11.8841
    13.2578  14.5283  15.5918  16.4340  18.2210  19.6946  21.6897  22.8160
    23.6218  25.1128  25.3127  25.8466  27.2821  27.4380  28.7392  29.1369
    29.8582  30.4061  30.8740  32.7776  33.5410  34.9075  35.5490  36.4490

          k = 0.4375-0.1875 0.5625 (  4356 PWs)   bands (ev):

    -5.3090  -1.1233   2.1235   3.5208   7.0820   8.5979   9.7965  11.2826
    13.3948  13.7038  15.2948  17.0897  18.4593  19.6176  20.8144  21.7760
    23.8154  25.2481  25.5696  26.5880  27.1119  27.4346  29.0956  29.2847
    30.0081  31.2299  32.7415  33.3740  33.6529  35.2907  35.4375  36.3206

          k = 0.3125-0.0625 0.4375 (  4360 PWs)   bands (ev):

    -5.9671   0.2874   2.4989   4.0003   7.2907   8.3594   9.6327   9.9919
    12.2553  13.8841  14.7954  16.2066  17.8116  18.8141  20.8190  22.2120
    23.2956  23.9186  24.9529  26.5601  28.5629  29.6545  30.8792  31.3804
    32.3871  32.7903  34.0558  34.3808  35.1551  35.8024  36.0737  36.5821

          k = 0.1875 0.0625 0.3125 (  4374 PWs)   bands (ev):

    -6.4771   1.6818   3.5639   4.3551   6.9879   7.9063   9.0751   9.7738
    11.9771  12.9933  13.5034  15.1574  16.5501  18.3456  20.9240  21.8196
    23.6612  25.2795  26.1953  27.3644  28.4833  31.4694  32.0782  32.7987
    33.5128  34.0502  34.3790  34.8596  35.6940  36.2028  36.4332  36.8994

          k =-0.0625 0.5625 0.0625 (  4360 PWs)   bands (ev):

    -5.8392   0.2761   2.8734   2.9846   6.2354   7.6829  10.8879  11.2173
    12.6960  15.0813  15.1388  16.8928  17.5776  18.5864  20.2737  20.4931
    22.4587  23.0182  25.0950  28.3727  28.9965  29.7932  30.0968  30.1501
    31.0830  31.2306  33.6508  34.7160  36.3609  36.9773  37.2824  38.0512

          k =-0.1875 0.6875-0.0625 (  4359 PWs)   bands (ev):

    -5.2728  -0.7824   2.1509   2.6605   6.5415   7.6230  10.7350  12.0926
    14.3422  15.5969  16.2371  17.2774  18.0969  18.9662  19.6607  20.9534
    21.6045  23.1791  25.7802  26.7791  27.1239  28.1234  28.9088  29.5441
    29.9700  31.8235  33.2489  34.3398  34.4763  35.6449  36.1219  37.2318

          k = 0.6875-0.1875 0.8125 (  4358 PWs)   bands (ev):

    -4.7109  -1.6246   1.3932   2.6246   6.7533   9.1451  10.3147  11.8775
    13.7018  15.6851  16.5518  16.7850  18.7615  20.5237  21.7622  22.1013
    22.4927  23.2324  24.3179  25.3816  25.6329  27.1457  27.9578  29.8528
    30.1359  30.5343  31.2582  32.9749  33.5266  34.2477  35.1751  37.1746

          k = 0.5625-0.0625 0.6875 (  4350 PWs)   bands (ev):

    -4.7613  -1.5463   1.0947   2.9439   7.0470   9.9000  10.7404  11.5787
    12.0977  13.5945  16.6855  18.0032  19.5304  20.6118  21.5622  22.2151
    23.2071  24.0778  24.8456  25.4807  25.9944  26.8381  27.6007  28.8578
    29.5980  29.9365  30.7486  33.5323  33.7867  34.5193  35.0968  37.6116

          k = 0.4375 0.0625 0.5625 (  4360 PWs)   bands (ev):

    -5.3428  -0.8146   1.6165   3.4881   7.3730   8.9918   9.9409  10.7538
    12.7138  14.0189  15.8876  16.9889  18.0508  20.1196  21.1406  22.3690
    23.4986  23.9767  25.5553  26.2416  26.7367  27.9757  28.5342  29.2358
    29.9544  31.5439  33.0079  33.4773  34.2979  35.2686  35.8732  37.0885

          k = 0.3125 0.1875 0.4375 (  4354 PWs)   bands (ev):

    -5.8834  -0.1547   3.0418   3.8933   6.7129   8.4867   9.4187  10.6562
    12.8573  13.0618  14.7067  16.3444  18.8844  19.1897  20.6059  21.1115
    22.3967  23.7671  26.4823  27.9351  28.6021  29.1283  30.2425  31.6628
    32.0917  32.4094  32.9444  33.8287  34.4999  34.6443  36.0854  36.9638

          k =-0.0625 0.8125 0.0625 (  4341 PWs)   bands (ev):

    -4.8199  -1.4663   2.2132   2.3883   5.9158   6.6502  12.9188  13.1731
    14.8790  16.5418  16.5808  17.6796  18.3082  19.4228  19.8266  20.1101
    20.9081  21.6827  24.5928  25.5078  25.8223  26.6544  29.2704  30.6203
    31.1121  31.9127  33.1047  34.4014  34.7488  36.0141  36.2699  37.8010

          k = 0.8125-0.0625 0.9375 (  4338 PWs)   bands (ev):

    -4.3930  -1.9963   1.7412   2.1890   6.3281   7.0233  12.6336  13.3861
    14.8655  16.0086  16.6734  17.8832  18.9909  19.7428  20.3182  21.4275
    21.7779  22.8648  23.3062  23.9978  24.8974  25.7532  28.2791  29.6584
    31.1342  32.7427  33.2565  33.9525  34.6193  35.3742  35.6720  36.4691

          k = 0.6875 0.0625 0.8125 (  4349 PWs)   bands (ev):

    -4.4417  -1.8860   1.1263   2.4863   6.6391   9.0592  11.2162  12.0649
    13.3267  14.7731  17.5665  18.1008  19.7304  20.0308  21.1536  21.7860
    22.4697  23.6011  23.9452  24.9559  25.6679  26.5470  27.0781  28.2864
    30.0932  30.4749  32.7709  33.2946  33.7148  34.5728  34.8186  36.9187

          k = 0.5625 0.1875 0.6875 (  4362 PWs)   bands (ev):

    -4.8509  -1.6187   1.5089   3.0486   7.0812   9.0767  10.6205  11.7150
    12.4844  14.4830  15.3954  17.6359  19.4708  20.4264  20.7443  22.8677
    23.7488  24.2557  24.7640  25.8047  26.8510  27.1289  27.4333  29.0299
    29.5962  30.0235  31.9027  32.4856  33.4071  33.9929  35.4662  37.1503

          k = 0.4375 0.3125 0.5625 (  4365 PWs)   bands (ev):

    -5.2586  -1.4627   2.8187   3.5755   6.4995   8.5584   9.3183  11.9602
    13.2088  14.6622  15.2640  16.6215  17.3878  19.1085  21.1322  22.5174
    24.2017  24.8272  26.2663  26.9230  27.1864  27.8961  28.6078  29.6435
    30.8396  30.9803  32.4768  32.6953  33.0579  33.8939  36.4382  36.5131

          k =-0.0625-0.9375 0.0625 (  4344 PWs)   bands (ev):

    -4.4086  -2.0269   2.0789   2.2658   5.9210   6.3454  13.8080  13.9425
    15.4096  16.3952  16.5540  17.6808  17.7997  18.7131  20.8515  21.7088
    22.1336  22.4421  23.0716  23.5452  23.9538  24.6978  29.9366  31.4223
    31.5526  32.8336  33.7439  34.0648  34.1759  36.1093  36.1276  36.7164

          k =-0.1875-0.8125-0.0625 (  4349 PWs)   bands (ev):

    -4.7741  -1.5018   1.8808   2.3453   6.3917   7.2413  11.6697  13.0467
    15.0505  15.7171  16.8417  17.6002  18.3589  19.1138  20.1855  21.0258
    22.0826  22.5388  23.7701  24.8970  26.8149  27.5202  27.8910  29.7908
    30.7152  31.2411  33.2576  34.0614  34.2329  35.5259  35.9881  36.7457

          k =-0.3125-0.6875-0.1875 (  4362 PWs)   bands (ev):

    -5.1073  -1.2137   1.8706   2.9079   6.9425   9.0306   9.8150  11.0692
    14.2905  15.2971  15.7870  16.7239  17.7166  19.6861  21.1518  22.6117
    23.0962  23.9966  24.2048  25.7801  27.3876  28.2857  28.4908  29.3406
    30.0526  30.8768  32.1756  33.1856  33.8133  33.9360  36.0821  37.1537

          k =-0.0625-0.6875 0.0625 (  4357 PWs)   bands (ev):

    -5.3439  -0.6487   2.4798   2.6303   6.0149   7.1285  11.8865  12.2091
    13.8067  15.8367  16.1585  18.0067  18.7203  18.8692  19.2513  19.6730
    21.0818  21.9501  26.6367  27.3232  27.6272  28.1323  28.7725  29.3000
    30.5472  31.5572  33.5254  34.3855  35.5522  36.4441  36.5622  38.0872

          k =-0.1875-0.5625-0.0625 (  4359 PWs)   bands (ev):

    -5.7514   0.0169   2.5355   3.1299   6.7813   8.0262   9.9674  11.0636
    13.2652  14.8123  15.2498  16.6342  18.0688  18.9293  19.9211  20.5581
    22.7756  24.4311  25.2205  26.7971  28.0718  28.9191  29.3762  31.1850
    31.9837  32.5326  33.0856  34.7665  35.0036  35.3267  36.6184  36.8759

          k =-0.0625-0.4375 0.0625 (  4365 PWs)   bands (ev):

    -6.2583   1.2508   3.3826   3.4376   6.5600   8.0464  10.0703  10.2388
    11.7934  13.8859  14.5404  15.9374  16.6931  17.7188  21.8103  21.9901
    22.7631  23.9558  24.3857  27.9766  29.5337  30.4911  31.2850  32.2574
    32.3804  33.2602  33.7334  35.5872  35.5979  36.4060  36.9796  37.8298

          k =-0.1875 0.1875 0.1875 (  4372 PWs)   bands (ev):

    -6.5860   1.8733   4.4548   4.4548   6.2027   8.5366   8.5366   9.5237
    12.4263  12.7901  12.7901  14.2841  17.5947  17.5947  19.9713  23.5187
    23.5187  23.8901  29.0390  29.0390  29.3318  29.6123  29.6123  31.9952
    33.9703  34.7380  34.7380  35.5277  35.5277  37.5537  37.5537  38.0351

          k =-0.3125 0.3125 0.0625 (  4372 PWs)   bands (ev):

    -6.2699   0.9852   3.0209   4.4400   6.9566   8.6175   8.7719  10.0961
    11.9898  13.2189  13.9056  15.6053  17.0988  19.8112  20.1655  21.7315
    23.8216  23.8396  25.7780  26.7450  29.4310  30.7349  31.7840  32.2752
    33.3544  33.3937  33.9054  34.3612  35.2700  35.7883  36.9198  37.5625

          k =-0.4375 0.4375-0.0625 (  4356 PWs)   bands (ev):

    -5.6890  -0.2822   2.0101   3.9482   7.1643   9.3073   9.3152  10.3243
    12.0870  14.1438  15.5825  16.6367  17.4967  19.1168  22.2346  22.2958
    22.7287  24.4482  24.5453  25.7651  28.6093  29.1367  29.9725  30.4149
    30.5476  31.5214  32.8649  34.6910  35.9974  36.2145  36.5315  36.6385

          k = 0.4375-0.4375 0.8125 (  4372 PWs)   bands (ev):

    -5.0734  -1.4343   1.7867   3.4360   6.9140   9.1083   9.8248  12.0963
    13.0697  13.4436  14.9108  18.0596  19.1927  19.5885  20.2740  22.7191
    24.8125  24.9381  25.3419  25.8817  25.9758  27.8563  28.1895  29.0430
    29.3289  30.6706  31.7973  33.0010  33.9499  34.9483  35.5797  36.7598

          k = 0.3125-0.3125 0.6875 (  4363 PWs)   bands (ev):

    -5.0605  -1.4612   2.0388   3.1394   6.7881   9.0232  10.2083  10.7875
    13.8621  15.4244  15.5884  16.4587  17.2574  20.5258  21.8366  22.0076
    23.4102  24.1080  25.0184  26.1371  26.8124  28.5472  28.6721  29.4481
    29.5041  30.7675  31.4857  32.6470  33.4411  34.7451  35.4984  36.7294

          k = 0.1875-0.1875 0.5625 (  4359 PWs)   bands (ev):

    -5.6709  -0.2921   2.6325   3.1382   6.8087   8.4843   9.8375  10.5132
    13.8624  14.3835  15.1710  16.6327  18.6147  19.1235  19.5005  20.6241
    23.8260  24.4630  25.3908  25.9554  27.3073  30.0194  30.3262  30.3328
    31.1362  32.0471  33.1071  33.3950  35.5966  35.7042  36.2473  36.3887

          k =-0.1875 0.4375 0.1875 (  4365 PWs)   bands (ev):

    -6.0660   0.4034   3.3719   3.5490   6.9034   8.2146   9.7840  10.0026
    12.7133  13.5313  14.1724  15.8496  18.3767  19.6636  20.1748  20.5901
    23.0993  24.1056  26.0181  26.7331  29.5169  29.7021  31.0759  32.0695
    32.4407  33.2916  33.5674  34.0144  34.6874  35.5606  36.4671  36.5761

          k =-0.3125 0.5625 0.0625 (  4359 PWs)   bands (ev):

    -5.5817  -0.3829   2.0600   3.3469   7.5325   8.3526   9.4177  10.8796
    13.1247  14.5374  15.7834  16.7240  17.6397  19.1335  20.7307  21.7602
    22.8161  24.7014  25.6793  26.2875  27.2372  28.0342  28.6992  30.5275
    31.9004  32.7300  33.1081  33.9644  34.4544  35.1219  35.2949  36.6672

          k = 0.5625-0.3125 0.9375 (  4360 PWs)   bands (ev):

    -4.9594  -1.2881   1.3522   2.8428   7.8618   8.7683   9.7136  11.8511
    13.1387  13.9405  16.4164  17.6004  18.9316  19.8015  21.2967  22.1234
    23.8020  24.4316  24.7620  25.5608  25.8415  27.7669  28.1943  28.8801
    29.5673  30.4736  31.8896  32.3671  33.2555  34.9538  35.7859  37.5364

          k = 0.4375-0.1875 0.8125 (  4355 PWs)   bands (ev):

    -4.6831  -1.6811   1.3225   2.5648   7.5943   8.9287  10.4631  11.6286
    12.5929  15.8792  16.2000  16.5503  19.8907  20.6878  21.4117  21.9495
    22.7467  24.1031  25.1125  25.7177  26.0433  26.4438  28.0553  28.7394
    29.2620  30.9640  31.5348  31.9161  32.4695  33.5329  35.7988  37.8606

          k = 0.3125-0.0625 0.6875 (  4362 PWs)   bands (ev):

    -5.1388  -1.0147   1.7310   2.7226   7.4070   8.4290   9.5078  11.9932
    14.1530  14.6342  16.4767  17.1602  18.1781  19.2500  20.5045  21.7757
    22.7622  24.6037  25.0169  25.7251  26.3004  28.0152  28.4373  29.6488
    30.3889  31.0371  32.2422  32.7277  34.1642  35.2888  36.0652  36.9361

          k =-0.1875 0.6875 0.1875 (  4355 PWs)   bands (ev):

    -5.2139  -0.9539   2.0150   2.8112   6.5387   8.3458  10.4615  11.2899
    14.9835  15.3552  16.1728  16.7810  17.4502  19.4823  19.9506  21.7292
    23.0029  23.1721  24.8957  25.8533  27.8311  28.0219  28.5264  30.0748
    30.6179  31.2738  32.3977  32.7061  35.1215  35.3329  36.1032  37.4626

          k = 0.6875-0.1875 1.0625 (  4344 PWs)   bands (ev):

    -4.6930  -1.5746   1.5233   2.2440   7.2551   8.1999  10.2413  12.7622
    13.9617  15.5143  17.0945  17.3999  18.9906  19.2896  20.3584  22.3108
    22.9659  23.6634  23.9977  24.3496  26.0778  27.9892  28.0998  29.0561
    29.6359  30.9829  31.8328  31.9946  33.3678  35.6880  35.9974  37.6940

          k = 0.5625-0.0625 0.9375 (  4353 PWs)   bands (ev):

    -4.3544  -1.9176   1.2547   1.8265   8.2794   9.2043   9.7980  10.7383
    14.6026  16.1133  16.6611  17.8414  19.3924  20.4087  20.6636  21.7824
    22.7127  23.7853  24.5468  25.5697  26.2581  27.1546  27.3425  28.5958
    28.7906  29.3822  30.1229  30.8241  34.1581  34.9606  36.9591  37.7163

          k = 0.4375 0.0625 0.8125 (  4348 PWs)   bands (ev):

    -4.5959  -1.6769   1.2367   2.2374   8.2599   8.8891   9.4933  11.7634
    13.4238  15.2460  17.2859  17.3565  19.1640  20.0073  21.0402  22.5176
    23.3769  23.7904  24.3601  25.2272  25.8527  26.9167  28.0191  28.9470
    29.7030  30.2801  30.8014  31.3439  31.9418  35.0138  37.3079  37.7133

          k =-0.1875-1.0625 0.1875 (  4351 PWs)   bands (ev):

    -4.4065  -1.9580   1.3587   2.4706   6.1956   7.9383  12.4292  12.7728
    13.9261  15.0472  17.4147  18.6489  18.9157  20.3282  20.3650  21.0801
    22.4459  22.7376  24.1292  24.2871  24.9143  26.4101  27.1970  28.7630
    31.3893  32.3450  32.6878  34.0440  34.4369  34.5312  35.4578  36.7327

          k =-0.3125-0.9375 0.0625 (  4336 PWs)   bands (ev):

    -4.3706  -1.9511   1.4312   1.9800   7.1725   8.0430  11.1645  12.1453
    14.6360  16.0235  16.6977  17.8899  19.5520  20.2375  20.7394  21.2961
    22.1351  22.6319  24.3140  25.3710  25.9475  26.6778  27.2242  27.8786
    29.7828  31.1773  31.7460  32.9474  33.7439  35.5957  36.0774  37.0098

          k =-0.1875-0.8125 0.1875 (  4353 PWs)   bands (ev):

    -4.7485  -1.5502   1.5806   2.5855   6.3156   8.0869  11.4387  12.0911
    14.8396  15.8677  16.4885  17.3964  17.7764  20.2272  21.0622  21.6375
    22.1588  22.8054  23.4537  25.9792  26.1145  26.3045  28.6399  29.5834
    30.7497  31.0781  32.4545  33.0179  34.6563  34.8604  35.7330  37.0901

          k =-0.3125 0.3125 0.3125 (  4350 PWs)   bands (ev):

    -5.9885  -0.1336   4.0203   4.0203   5.8100   8.8612   8.8612  11.5317
    12.2308  13.2479  13.2479  16.3881  20.0206  20.0206  20.5100  20.5100
    21.0139  22.8557  29.5461  29.6124  29.6124  29.8482  30.0825  30.0825
    30.8036  30.8036  33.0313  35.1160  35.5866  35.5866  35.8925  35.8925

          k =-0.4375 0.4375 0.1875 (  4355 PWs)   bands (ev):

    -5.6239  -0.6808   2.5815   3.9245   6.7246   8.9281   9.0847  11.3171
    12.7032  13.2342  15.8056  16.2137  18.2960  19.8806  20.6617  21.3239
    22.6684  24.7011  26.3873  27.2343  27.7506  28.2750  30.0829  30.5325
    31.3590  31.6688  31.9526  33.9288  34.2657  35.4795  35.7108  36.6439

          k = 0.4375-0.4375 1.0625 (  4355 PWs)   bands (ev):

    -5.0574  -1.2141   1.2803   3.3803   6.9712   9.9569  10.2682  11.1160
    12.7027  12.9680  16.1027  17.5121  19.1285  20.9119  21.2899  21.9155
    23.1281  24.9116  25.4269  25.8280  26.4855  27.2252  27.7166  28.1694
    30.1402  30.6726  31.8601  32.4233  35.2525  35.5474  36.0754  36.6262

          k = 0.3125-0.3125 0.9375 (  4357 PWs)   bands (ev):

    -4.5783  -1.7511   1.0095   2.8586   6.5599  10.1524  11.2056  11.4482
    12.4319  13.7210  17.1906  18.3260  19.9000  20.1683  21.8808  22.1572
    22.6967  24.0425  24.1746  25.2740  25.4778  26.0562  27.6107  28.8080
    29.3930  30.9156  31.2018  32.6809  34.6046  34.9283  35.8062  36.4191

          k =-0.3125 0.5625 0.3125 (  4364 PWs)   bands (ev):

    -5.4019  -1.1322   2.8369   3.3985   6.6684   8.5356   9.6305  11.1206
    13.1625  14.9314  15.4806  16.4216  17.2921  19.7329  21.2730  21.3682
    22.8790  25.3896  26.4854  26.6111  27.3415  27.9206  29.4058  30.4051
    31.1991  31.2966  31.7628  32.5393  34.3079  34.9499  35.1386  36.2379

          k = 0.5625-0.3125 1.1875 (  4362 PWs)   bands (ev):

    -4.9760  -1.4598   1.6945   2.9868   7.5088   8.4707  10.4458  11.2707
    13.1730  14.8803  15.2782  17.2371  18.8127  19.9347  21.4209  22.5092
    23.6269  23.9569  25.0369  26.3930  26.8262  27.2704  28.2753  28.8991
    29.3411  30.7179  31.6343  32.6516  33.6662  34.6665  35.0028  36.2438

          k = 0.4375-0.1875 1.0625 (  4352 PWs)   bands (ev):

    -4.5062  -1.7879   1.0889   2.3486   7.5379   9.7190  10.3444  10.9018
    13.2786  14.9492  17.4013  17.6680  19.5145  20.0928  21.7985  22.4327
    22.6428  23.7854  24.1133  25.3718  25.9044  27.3573  27.8320  28.1366
    28.7925  29.6613  31.5489  32.1735  32.6720  34.3691  36.0303  37.5454

          k =-0.3125-1.1875 0.3125 (  4358 PWs)   bands (ev):

    -4.7598  -1.6634   1.3873   2.9545   6.6618   9.8125  10.6605  10.8666
    13.4774  14.5365  15.8626  17.7476  18.6530  21.0413  21.6601  22.5566
    22.8972  23.4713  24.5603  25.5855  26.2661  27.0444  27.4853  28.9635
    30.8304  31.0415  31.2644  31.6208  33.1440  34.7689  35.4788  37.1396

          k =-0.4375 0.4375 0.4375 (  4368 PWs)   bands (ev):

    -5.3592  -1.4924   3.7782   3.7782   5.5761   8.8269   8.8269  11.6269
    14.0233  14.8550  14.8550  16.5928  17.4799  17.4799  21.3249  23.3202
    23.3202  25.3024  26.4758  26.8278  26.8278  30.1062  30.3439  30.3553
    30.3553  30.6710  30.6710  34.3273  34.3273  34.5639  34.5639  34.9331

          k = 0.4375-0.4375 1.3125 (  4359 PWs)   bands (ev):

    -5.1226  -1.6344   2.5500   3.5361   6.5902   8.6615   9.3408  12.2568
    13.6724  14.4794  14.5146  17.2596  17.9871  18.3375  21.6051  23.4102
    24.4069  24.4986  25.9132  26.4504  26.9045  27.6068  28.4958  29.8000
    30.4332  30.8301  30.8494  32.2817  34.3707  34.7474  34.9307  36.4146

     highest occupied, lowest unoccupied level (ev):     4.8896    5.5761

!    total energy              =     -15.77444967 Ry
     estimated scf accuracy    <          2.6E-11 Ry

     The total energy is the sum of the following terms:
     one-electron contribution =       3.50936343 Ry
     hartree contribution      =       1.08894517 Ry
     xc contribution           =      -4.44774147 Ry
     ewald contribution        =     -15.92501680 Ry

     convergence has been achieved in  11 iterations

     Forces acting on atoms (cartesian axes, Ry/au):

     atom    1 type  1   force =     0.00000000   -0.00000000    0.00000000
     atom    2 type  2   force =     0.00000000    0.00000000    0.00000000

     Total force =     0.000000     Total SCF correction =     0.000000


     Computing stress (Cartesian axis) and pressure

          total   stress  (Ry/bohr**3)                   (kbar)     P=       -0.03
  -0.00000020   0.00000000   0.00000000           -0.03        0.00        0.00
   0.00000000  -0.00000020  -0.00000000            0.00       -0.03       -0.00
   0.00000000  -0.00000000  -0.00000020            0.00       -0.00       -0.03


     Writing all to output data dir ./work/GaSb.save/
 
     init_run     :      0.41s CPU      0.54s WALL (       1 calls)
     electrons    :     13.72s CPU     14.14s WALL (       1 calls)
     forces       :      0.05s CPU      0.08s WALL (       1 calls)
     stress       :      0.16s CPU      0.18s WALL (       1 calls)

     Called by init_run:
     wfcinit      :      0.35s CPU      0.44s WALL (       1 calls)
     potinit      :      0.01s CPU      0.01s WALL (       1 calls)
     hinit0       :      0.04s CPU      0.06s WALL (       1 calls)

     Called by electrons:
     c_bands      :     11.97s CPU     12.29s WALL (      11 calls)
     sum_band     :      1.72s CPU      1.77s WALL (      11 calls)
     v_of_rho     :      0.01s CPU      0.01s WALL (      12 calls)
     mix_rho      :      0.01s CPU      0.03s WALL (      11 calls)

     Called by c_bands:
     init_us_2    :      0.13s CPU      0.14s WALL (     750 calls)
     init_us_2:cp :      0.13s CPU      0.13s WALL (     750 calls)
     cegterg      :     11.16s CPU     11.44s WALL (     330 calls)

     Called by *egterg:
     cdiaghg      :      1.87s CPU      1.99s WALL (    1396 calls)
     h_psi        :      8.39s CPU      8.60s WALL (    1426 calls)
     g_psi        :      0.04s CPU      0.04s WALL (    1066 calls)

     Called by h_psi:
     h_psi:calbec :      0.30s CPU      0.31s WALL (    1426 calls)
     vloc_psi     :      7.86s CPU      8.05s WALL (    1426 calls)
     add_vuspsi   :      0.16s CPU      0.16s WALL (    1426 calls)

     General routines
     calbec       :      0.32s CPU      0.33s WALL (    1576 calls)
     fft          :      0.01s CPU      0.03s WALL (      40 calls)
     ffts         :      0.00s CPU      0.00s WALL (      11 calls)
     fftw         :      8.48s CPU      8.70s WALL (   64298 calls)
 
     Parallel routines
 
     PWSCF        :     14.59s CPU     15.39s WALL

 
   This run was terminated on:   3:48:28  24Feb2023            

=------------------------------------------------------------------------------=
   JOB DONE.
=------------------------------------------------------------------------------=
