
     Program PWSCF v.7.1 starts on 23Feb2023 at 13:58:21 

     This program is part of the open-source Quantum ESPRESSO suite
     for quantum simulation of materials; please cite
         "P. Giannozzi et al., J. Phys.:Condens. Matter 21 395502 (2009);
         "P. Giannozzi et al., J. Phys.:Condens. Matter 29 465901 (2017);
         "P. Giannozzi et al., J. Chem. Phys. 152 154105 (2020);
          URL http://www.quantum-espresso.org", 
     in publications or presentations arising from this work. More details at
     http://www.quantum-espresso.org/quote

     Parallel version (MPI), running on    16 processors

     MPI processes distributed on     1 nodes
     56516 MiB available memory on the printing compute node when the environment starts
 
     Waiting for input...
     Reading input from standard input

     Current dimensions of program PWSCF are:
     Max number of different atomic species (ntypx) = 10
     Max number of k-points (npk) =  40000
     Max angular momentum in pseudopotentials (lmaxx) =  4

     Atomic positions and unit cell read from directory:
     ./work/GaSb.save/
     Atomic positions from file used, from input discarded
 
 
     R & G space division:  proc/nbgrp/npool/nimage =      16
     Subspace diagonalization in iterative solution of the eigenvalue problem:
     a serial algorithm will be used

 
     Parallelization info
     --------------------
     sticks:   dense  smooth     PW     G-vecs:    dense   smooth      PW
     Min          87      87     24                 2169     2169     325
     Max          88      88     25                 2173     2173     327
     Sum        1405    1405    397                34717    34717    5209
 
     Using Slab Decomposition
 


     bravais-lattice index     =            2
     lattice parameter (alat)  =      11.2994  a.u.
     unit-cell volume          =     360.6683 (a.u.)^3
     number of atoms/cell      =            2
     number of atomic types    =            2
     number of electrons       =         8.00
     number of Kohn-Sham states=           32
     kinetic-energy cutoff     =      80.0000  Ry
     charge density cutoff     =     320.0000  Ry
     Exchange-correlation= SLA-PZ-NOGX-NOGC
                           (   1   1   0   0   0   0   0)

     celldm(1)=  11.299416  celldm(2)=   0.000000  celldm(3)=   0.000000
     celldm(4)=   0.000000  celldm(5)=   0.000000  celldm(6)=   0.000000

     crystal axes: (cart. coord. in units of alat)
               a(1) = (  -0.500000   0.000000   0.500000 )  
               a(2) = (   0.000000   0.500000   0.500000 )  
               a(3) = (  -0.500000   0.500000   0.000000 )  

     reciprocal axes: (cart. coord. in units 2 pi/alat)
               b(1) = ( -1.000000 -1.000000  1.000000 )  
               b(2) = (  1.000000  1.000000  1.000000 )  
               b(3) = ( -1.000000  1.000000 -1.000000 )  


     PseudoPot. # 1 for Ga read from file:
     ../pseudo/Ga.pz-hgh.upf
     MD5 check sum: 9a76aebca20297769771d7f9bb2cf22c
     Pseudo is Norm-conserving, Zval =  3.0
     Generated in analytical, separable form
     Using radial grid of 1205 points,  6 beta functions with: 
                l(1) =   0
                l(2) =   0
                l(3) =   0
                l(4) =   1
                l(5) =   1
                l(6) =   2

     PseudoPot. # 2 for Sb read from file:
     ../pseudo/Sb.pz-hgh.upf
     MD5 check sum: e4b141fc27dbe73d740b8d5d3061d4bd
     Pseudo is Norm-conserving, Zval =  5.0
     Generated in analytical, separable form
     Using radial grid of 1243 points,  6 beta functions with: 
                l(1) =   0
                l(2) =   0
                l(3) =   0
                l(4) =   1
                l(5) =   1
                l(6) =   2

     atomic species   valence    mass     pseudopotential
        Ga             3.00    69.72300     Ga( 1.00)
        Sb             5.00   121.76000     Sb( 1.00)

     24 Sym. Ops. (no inversion) found


                                    s                        frac. trans.

      isym =  1     identity                                     

 cryst.   s( 1) = (     1          0          0      )
                  (     0          1          0      )
                  (     0          0          1      )

 cart.    s( 1) = (  1.0000000  0.0000000  0.0000000 )
                  (  0.0000000  1.0000000  0.0000000 )
                  (  0.0000000  0.0000000  1.0000000 )


      isym =  2     180 deg rotation - cart. axis [0,0,1]        

 cryst.   s( 2) = (     0          1         -1      )
                  (     1          0         -1      )
                  (     0          0         -1      )

 cart.    s( 2) = ( -1.0000000  0.0000000  0.0000000 )
                  (  0.0000000 -1.0000000  0.0000000 )
                  (  0.0000000  0.0000000  1.0000000 )


      isym =  3     180 deg rotation - cart. axis [0,1,0]        

 cryst.   s( 3) = (    -1          0          0      )
                  (    -1          0          1      )
                  (    -1          1          0      )

 cart.    s( 3) = ( -1.0000000  0.0000000  0.0000000 )
                  (  0.0000000  1.0000000  0.0000000 )
                  (  0.0000000  0.0000000 -1.0000000 )


      isym =  4     180 deg rotation - cart. axis [1,0,0]        

 cryst.   s( 4) = (     0         -1          1      )
                  (     0         -1          0      )
                  (     1         -1          0      )

 cart.    s( 4) = (  1.0000000  0.0000000  0.0000000 )
                  (  0.0000000 -1.0000000  0.0000000 )
                  (  0.0000000  0.0000000 -1.0000000 )


      isym =  5     120 deg rotation - cart. axis [-1,-1,-1]     

 cryst.   s( 5) = (    -1          0          1      )
                  (    -1          1          0      )
                  (    -1          0          0      )

 cart.    s( 5) = (  0.0000000  1.0000000  0.0000000 )
                  (  0.0000000  0.0000000  1.0000000 )
                  (  1.0000000  0.0000000  0.0000000 )


      isym =  6     120 deg rotation - cart. axis [-1,1,1]       

 cryst.   s( 6) = (     0          1          0      )
                  (     0          0          1      )
                  (     1          0          0      )

 cart.    s( 6) = (  0.0000000 -1.0000000  0.0000000 )
                  (  0.0000000  0.0000000  1.0000000 )
                  ( -1.0000000  0.0000000  0.0000000 )


      isym =  7     120 deg rotation - cart. axis [1,1,-1]       

 cryst.   s( 7) = (     1          0         -1      )
                  (     0          0         -1      )
                  (     0          1         -1      )

 cart.    s( 7) = (  0.0000000  1.0000000  0.0000000 )
                  (  0.0000000  0.0000000 -1.0000000 )
                  ( -1.0000000  0.0000000  0.0000000 )


      isym =  8     120 deg rotation - cart. axis [1,-1,1]       

 cryst.   s( 8) = (     0         -1          0      )
                  (     1         -1          0      )
                  (     0         -1          1      )

 cart.    s( 8) = (  0.0000000 -1.0000000  0.0000000 )
                  (  0.0000000  0.0000000 -1.0000000 )
                  (  1.0000000  0.0000000  0.0000000 )


      isym =  9     120 deg rotation - cart. axis [1,1,1]        

 cryst.   s( 9) = (     0          0         -1      )
                  (     0          1         -1      )
                  (     1          0         -1      )

 cart.    s( 9) = (  0.0000000  0.0000000  1.0000000 )
                  (  1.0000000  0.0000000  0.0000000 )
                  (  0.0000000  1.0000000  0.0000000 )


      isym = 10     120 deg rotation - cart. axis [-1,1,-1]      

 cryst.   s(10) = (    -1          1          0      )
                  (    -1          0          0      )
                  (    -1          0          1      )

 cart.    s(10) = (  0.0000000  0.0000000  1.0000000 )
                  ( -1.0000000  0.0000000  0.0000000 )
                  (  0.0000000 -1.0000000  0.0000000 )


      isym = 11     120 deg rotation - cart. axis [1,-1,-1]      

 cryst.   s(11) = (     0          0          1      )
                  (     1          0          0      )
                  (     0          1          0      )

 cart.    s(11) = (  0.0000000  0.0000000 -1.0000000 )
                  ( -1.0000000  0.0000000  0.0000000 )
                  (  0.0000000  1.0000000  0.0000000 )


      isym = 12     120 deg rotation - cart. axis [-1,-1,1]      

 cryst.   s(12) = (     1         -1          0      )
                  (     0         -1          1      )
                  (     0         -1          0      )

 cart.    s(12) = (  0.0000000  0.0000000 -1.0000000 )
                  (  1.0000000  0.0000000  0.0000000 )
                  (  0.0000000 -1.0000000  0.0000000 )


      isym = 13     inv. 180 deg rotation - cart. axis [1,1,0]   

 cryst.   s(13) = (     0          1          0      )
                  (     1          0          0      )
                  (     0          0          1      )

 cart.    s(13) = (  0.0000000 -1.0000000  0.0000000 )
                  ( -1.0000000  0.0000000  0.0000000 )
                  (  0.0000000  0.0000000  1.0000000 )


      isym = 14     inv. 180 deg rotation - cart. axis [1,-1,0]  

 cryst.   s(14) = (     1          0         -1      )
                  (     0          1         -1      )
                  (     0          0         -1      )

 cart.    s(14) = (  0.0000000  1.0000000  0.0000000 )
                  (  1.0000000  0.0000000  0.0000000 )
                  (  0.0000000  0.0000000  1.0000000 )


      isym = 15     inv.  90 deg rotation - cart. axis [0,0,-1]  

 cryst.   s(15) = (     0         -1          0      )
                  (     0         -1          1      )
                  (     1         -1          0      )

 cart.    s(15) = (  0.0000000 -1.0000000  0.0000000 )
                  (  1.0000000  0.0000000  0.0000000 )
                  (  0.0000000  0.0000000 -1.0000000 )


      isym = 16     inv.  90 deg rotation - cart. axis [0,0,1]   

 cryst.   s(16) = (    -1          0          1      )
                  (    -1          0          0      )
                  (    -1          1          0      )

 cart.    s(16) = (  0.0000000  1.0000000  0.0000000 )
                  ( -1.0000000  0.0000000  0.0000000 )
                  (  0.0000000  0.0000000 -1.0000000 )


      isym = 17     inv. 180 deg rotation - cart. axis [1,0,1]   

 cryst.   s(17) = (     1          0          0      )
                  (     0          0          1      )
                  (     0          1          0      )

 cart.    s(17) = (  0.0000000  0.0000000 -1.0000000 )
                  (  0.0000000  1.0000000  0.0000000 )
                  ( -1.0000000  0.0000000  0.0000000 )


      isym = 18     inv. 180 deg rotation - cart. axis [-1,0,1]  

 cryst.   s(18) = (    -1          0          0      )
                  (    -1          1          0      )
                  (    -1          0          1      )

 cart.    s(18) = (  0.0000000  0.0000000  1.0000000 )
                  (  0.0000000  1.0000000  0.0000000 )
                  (  1.0000000  0.0000000  0.0000000 )


      isym = 19     inv.  90 deg rotation - cart. axis [0,1,0]   

 cryst.   s(19) = (     0         -1          1      )
                  (     1         -1          0      )
                  (     0         -1          0      )

 cart.    s(19) = (  0.0000000  0.0000000 -1.0000000 )
                  (  0.0000000 -1.0000000  0.0000000 )
                  (  1.0000000  0.0000000  0.0000000 )


      isym = 20     inv.  90 deg rotation - cart. axis [0,-1,0]  

 cryst.   s(20) = (     0          1         -1      )
                  (     0          0         -1      )
                  (     1          0         -1      )

 cart.    s(20) = (  0.0000000  0.0000000  1.0000000 )
                  (  0.0000000 -1.0000000  0.0000000 )
                  ( -1.0000000  0.0000000  0.0000000 )


      isym = 21     inv. 180 deg rotation - cart. axis [0,1,1]   

 cryst.   s(21) = (     1         -1          0      )
                  (     0         -1          0      )
                  (     0         -1          1      )

 cart.    s(21) = (  1.0000000  0.0000000  0.0000000 )
                  (  0.0000000  0.0000000 -1.0000000 )
                  (  0.0000000 -1.0000000  0.0000000 )


      isym = 22     inv. 180 deg rotation - cart. axis [0,1,-1]  

 cryst.   s(22) = (     0          0          1      )
                  (     0          1          0      )
                  (     1          0          0      )

 cart.    s(22) = (  1.0000000  0.0000000  0.0000000 )
                  (  0.0000000  0.0000000  1.0000000 )
                  (  0.0000000  1.0000000  0.0000000 )


      isym = 23     inv.  90 deg rotation - cart. axis [-1,0,0]  

 cryst.   s(23) = (     0          0         -1      )
                  (     1          0         -1      )
                  (     0          1         -1      )

 cart.    s(23) = ( -1.0000000  0.0000000  0.0000000 )
                  (  0.0000000  0.0000000 -1.0000000 )
                  (  0.0000000  1.0000000  0.0000000 )


      isym = 24     inv.  90 deg rotation - cart. axis [1,0,0]   

 cryst.   s(24) = (    -1          1          0      )
                  (    -1          0          1      )
                  (    -1          0          0      )

 cart.    s(24) = ( -1.0000000  0.0000000  0.0000000 )
                  (  0.0000000  0.0000000  1.0000000 )
                  (  0.0000000 -1.0000000  0.0000000 )


     point group T_d (-43m) 
     there are  5 classes
     the character table:

       E     8C3   3C2   6S4   6s_d 
A_1    1.00  1.00  1.00  1.00  1.00
A_2    1.00  1.00  1.00 -1.00 -1.00
E      2.00 -1.00  2.00  0.00  0.00
T_1    3.00  0.00 -1.00  1.00 -1.00
T_2    3.00  0.00 -1.00 -1.00  1.00

     the symmetry operations in each class and the name of the first element:

     E        1
          identity                                               
     8C3      5    7    8    6   12    9   10   11
          120 deg rotation - cart. axis [-1,-1,-1]               
     3C2      2    3    4
          180 deg rotation - cart. axis [0,0,1]                  
     6S4     15   16   20   19   23   24
          inv.  90 deg rotation - cart. axis [0,0,-1]            
     6s_d    13   14   17   18   21   22
          inv. 180 deg rotation - cart. axis [1,1,0]             

   Cartesian axes

     site n.     atom                  positions (alat units)
         1           Ga  tau(   1) = (   0.0000000   0.0000000   0.0000000  )
         2           Sb  tau(   2) = (  -0.2500000   0.2500000   0.2500000  )

   Crystallographic axes

     site n.     atom                  positions (cryst. coord.)
         1           Ga  tau(   1) = (  0.0000000  0.0000000  0.0000000  )
         2           Sb  tau(   2) = (  0.2500000  0.2500000  0.2500000  )

     number of k points=   491
                       cart. coord. in units 2pi/alat
        k(    1) = (   0.0000000   0.0000000   0.0000000), wk =   0.0040733
        k(    2) = (  -0.0166667   0.0000000   0.0000000), wk =   0.0040733
        k(    3) = (  -0.0333333   0.0000000   0.0000000), wk =   0.0040733
        k(    4) = (  -0.0500000   0.0000000   0.0000000), wk =   0.0040733
        k(    5) = (  -0.0666667   0.0000000   0.0000000), wk =   0.0040733
        k(    6) = (  -0.0833333   0.0000000   0.0000000), wk =   0.0040733
        k(    7) = (  -0.1000000   0.0000000   0.0000000), wk =   0.0040733
        k(    8) = (  -0.1166667   0.0000000   0.0000000), wk =   0.0040733
        k(    9) = (  -0.1333333   0.0000000   0.0000000), wk =   0.0040733
        k(   10) = (  -0.1500000   0.0000000   0.0000000), wk =   0.0040733
        k(   11) = (  -0.1666667   0.0000000   0.0000000), wk =   0.0040733
        k(   12) = (  -0.1833333   0.0000000   0.0000000), wk =   0.0040733
        k(   13) = (  -0.2000000   0.0000000   0.0000000), wk =   0.0040733
        k(   14) = (  -0.2166667   0.0000000   0.0000000), wk =   0.0040733
        k(   15) = (  -0.2333333   0.0000000   0.0000000), wk =   0.0040733
        k(   16) = (  -0.2500000   0.0000000   0.0000000), wk =   0.0040733
        k(   17) = (  -0.2666667   0.0000000   0.0000000), wk =   0.0040733
        k(   18) = (  -0.2833333   0.0000000   0.0000000), wk =   0.0040733
        k(   19) = (  -0.3000000   0.0000000   0.0000000), wk =   0.0040733
        k(   20) = (  -0.3166667   0.0000000   0.0000000), wk =   0.0040733
        k(   21) = (  -0.3333333   0.0000000   0.0000000), wk =   0.0040733
        k(   22) = (  -0.3500000   0.0000000   0.0000000), wk =   0.0040733
        k(   23) = (  -0.3666667   0.0000000   0.0000000), wk =   0.0040733
        k(   24) = (  -0.3833333   0.0000000   0.0000000), wk =   0.0040733
        k(   25) = (  -0.4000000   0.0000000   0.0000000), wk =   0.0040733
        k(   26) = (  -0.4166667   0.0000000   0.0000000), wk =   0.0040733
        k(   27) = (  -0.4333333   0.0000000   0.0000000), wk =   0.0040733
        k(   28) = (  -0.4500000   0.0000000   0.0000000), wk =   0.0040733
        k(   29) = (  -0.4666667   0.0000000   0.0000000), wk =   0.0040733
        k(   30) = (  -0.4833333   0.0000000   0.0000000), wk =   0.0040733
        k(   31) = (  -0.5000000   0.0000000   0.0000000), wk =   0.0040733
        k(   32) = (  -0.5166667   0.0000000   0.0000000), wk =   0.0040733
        k(   33) = (  -0.5333333   0.0000000   0.0000000), wk =   0.0040733
        k(   34) = (  -0.5500000   0.0000000   0.0000000), wk =   0.0040733
        k(   35) = (  -0.5666667   0.0000000   0.0000000), wk =   0.0040733
        k(   36) = (  -0.5833333   0.0000000   0.0000000), wk =   0.0040733
        k(   37) = (  -0.6000000   0.0000000   0.0000000), wk =   0.0040733
        k(   38) = (  -0.6166667   0.0000000   0.0000000), wk =   0.0040733
        k(   39) = (  -0.6333333   0.0000000   0.0000000), wk =   0.0040733
        k(   40) = (  -0.6500000   0.0000000   0.0000000), wk =   0.0040733
        k(   41) = (  -0.6666667   0.0000000   0.0000000), wk =   0.0040733
        k(   42) = (  -0.6833333   0.0000000   0.0000000), wk =   0.0040733
        k(   43) = (  -0.7000000   0.0000000   0.0000000), wk =   0.0040733
        k(   44) = (  -0.7166667   0.0000000   0.0000000), wk =   0.0040733
        k(   45) = (  -0.7333333   0.0000000   0.0000000), wk =   0.0040733
        k(   46) = (  -0.7500000   0.0000000   0.0000000), wk =   0.0040733
        k(   47) = (  -0.7666667   0.0000000   0.0000000), wk =   0.0040733
        k(   48) = (  -0.7833333   0.0000000   0.0000000), wk =   0.0040733
        k(   49) = (  -0.8000000   0.0000000   0.0000000), wk =   0.0040733
        k(   50) = (  -0.8166667   0.0000000   0.0000000), wk =   0.0040733
        k(   51) = (  -0.8333333   0.0000000   0.0000000), wk =   0.0040733
        k(   52) = (  -0.8500000   0.0000000   0.0000000), wk =   0.0040733
        k(   53) = (  -0.8666667   0.0000000   0.0000000), wk =   0.0040733
        k(   54) = (  -0.8833333   0.0000000   0.0000000), wk =   0.0040733
        k(   55) = (  -0.9000000   0.0000000   0.0000000), wk =   0.0040733
        k(   56) = (  -0.9166667   0.0000000   0.0000000), wk =   0.0040733
        k(   57) = (  -0.9333333   0.0000000   0.0000000), wk =   0.0040733
        k(   58) = (  -0.9500000   0.0000000   0.0000000), wk =   0.0040733
        k(   59) = (  -0.9666667   0.0000000   0.0000000), wk =   0.0040733
        k(   60) = (  -0.9833333   0.0000000   0.0000000), wk =   0.0040733
        k(   61) = (  -1.0000000   0.0000000   0.0000000), wk =   0.0040733
        k(   62) = (  -1.0000000   0.0100000   0.0000000), wk =   0.0040733
        k(   63) = (  -1.0000000   0.0200000   0.0000000), wk =   0.0040733
        k(   64) = (  -1.0000000   0.0300000   0.0000000), wk =   0.0040733
        k(   65) = (  -1.0000000   0.0400000   0.0000000), wk =   0.0040733
        k(   66) = (  -1.0000000   0.0500000   0.0000000), wk =   0.0040733
        k(   67) = (  -1.0000000   0.0600000   0.0000000), wk =   0.0040733
        k(   68) = (  -1.0000000   0.0700000   0.0000000), wk =   0.0040733
        k(   69) = (  -1.0000000   0.0800000   0.0000000), wk =   0.0040733
        k(   70) = (  -1.0000000   0.0900000   0.0000000), wk =   0.0040733
        k(   71) = (  -1.0000000   0.1000000   0.0000000), wk =   0.0040733
        k(   72) = (  -1.0000000   0.1100000   0.0000000), wk =   0.0040733
        k(   73) = (  -1.0000000   0.1200000   0.0000000), wk =   0.0040733
        k(   74) = (  -1.0000000   0.1300000   0.0000000), wk =   0.0040733
        k(   75) = (  -1.0000000   0.1400000   0.0000000), wk =   0.0040733
        k(   76) = (  -1.0000000   0.1500000   0.0000000), wk =   0.0040733
        k(   77) = (  -1.0000000   0.1600000   0.0000000), wk =   0.0040733
        k(   78) = (  -1.0000000   0.1700000   0.0000000), wk =   0.0040733
        k(   79) = (  -1.0000000   0.1800000   0.0000000), wk =   0.0040733
        k(   80) = (  -1.0000000   0.1900000   0.0000000), wk =   0.0040733
        k(   81) = (  -1.0000000   0.2000000   0.0000000), wk =   0.0040733
        k(   82) = (  -1.0000000   0.2100000   0.0000000), wk =   0.0040733
        k(   83) = (  -1.0000000   0.2200000   0.0000000), wk =   0.0040733
        k(   84) = (  -1.0000000   0.2300000   0.0000000), wk =   0.0040733
        k(   85) = (  -1.0000000   0.2400000   0.0000000), wk =   0.0040733
        k(   86) = (  -1.0000000   0.2500000   0.0000000), wk =   0.0040733
        k(   87) = (  -1.0000000   0.2600000   0.0000000), wk =   0.0040733
        k(   88) = (  -1.0000000   0.2700000   0.0000000), wk =   0.0040733
        k(   89) = (  -1.0000000   0.2800000   0.0000000), wk =   0.0040733
        k(   90) = (  -1.0000000   0.2900000   0.0000000), wk =   0.0040733
        k(   91) = (  -1.0000000   0.3000000   0.0000000), wk =   0.0040733
        k(   92) = (  -1.0000000   0.3100000   0.0000000), wk =   0.0040733
        k(   93) = (  -1.0000000   0.3200000   0.0000000), wk =   0.0040733
        k(   94) = (  -1.0000000   0.3300000   0.0000000), wk =   0.0040733
        k(   95) = (  -1.0000000   0.3400000   0.0000000), wk =   0.0040733
        k(   96) = (  -1.0000000   0.3500000   0.0000000), wk =   0.0040733
        k(   97) = (  -1.0000000   0.3600000   0.0000000), wk =   0.0040733
        k(   98) = (  -1.0000000   0.3700000   0.0000000), wk =   0.0040733
        k(   99) = (  -1.0000000   0.3800000   0.0000000), wk =   0.0040733
        k(  100) = (  -1.0000000   0.3900000   0.0000000), wk =   0.0040733
        k(  101) = (  -1.0000000   0.4000000   0.0000000), wk =   0.0040733
        k(  102) = (  -1.0000000   0.4100000   0.0000000), wk =   0.0040733
        k(  103) = (  -1.0000000   0.4200000   0.0000000), wk =   0.0040733
        k(  104) = (  -1.0000000   0.4300000   0.0000000), wk =   0.0040733
        k(  105) = (  -1.0000000   0.4400000   0.0000000), wk =   0.0040733
        k(  106) = (  -1.0000000   0.4500000   0.0000000), wk =   0.0040733
        k(  107) = (  -1.0000000   0.4600000   0.0000000), wk =   0.0040733
        k(  108) = (  -1.0000000   0.4700000   0.0000000), wk =   0.0040733
        k(  109) = (  -1.0000000   0.4800000   0.0000000), wk =   0.0040733
        k(  110) = (  -1.0000000   0.4900000   0.0000000), wk =   0.0040733
        k(  111) = (  -1.0000000   0.5000000   0.0000000), wk =   0.0040733
        k(  112) = (  -0.9950000   0.5050000   0.0000000), wk =   0.0040733
        k(  113) = (  -0.9900000   0.5100000   0.0000000), wk =   0.0040733
        k(  114) = (  -0.9850000   0.5150000   0.0000000), wk =   0.0040733
        k(  115) = (  -0.9800000   0.5200000   0.0000000), wk =   0.0040733
        k(  116) = (  -0.9750000   0.5250000   0.0000000), wk =   0.0040733
        k(  117) = (  -0.9700000   0.5300000   0.0000000), wk =   0.0040733
        k(  118) = (  -0.9650000   0.5350000   0.0000000), wk =   0.0040733
        k(  119) = (  -0.9600000   0.5400000   0.0000000), wk =   0.0040733
        k(  120) = (  -0.9550000   0.5450000   0.0000000), wk =   0.0040733
        k(  121) = (  -0.9500000   0.5500000   0.0000000), wk =   0.0040733
        k(  122) = (  -0.9450000   0.5550000   0.0000000), wk =   0.0040733
        k(  123) = (  -0.9400000   0.5600000   0.0000000), wk =   0.0040733
        k(  124) = (  -0.9350000   0.5650000   0.0000000), wk =   0.0040733
        k(  125) = (  -0.9300000   0.5700000   0.0000000), wk =   0.0040733
        k(  126) = (  -0.9250000   0.5750000   0.0000000), wk =   0.0040733
        k(  127) = (  -0.9200000   0.5800000   0.0000000), wk =   0.0040733
        k(  128) = (  -0.9150000   0.5850000   0.0000000), wk =   0.0040733
        k(  129) = (  -0.9100000   0.5900000   0.0000000), wk =   0.0040733
        k(  130) = (  -0.9050000   0.5950000   0.0000000), wk =   0.0040733
        k(  131) = (  -0.9000000   0.6000000   0.0000000), wk =   0.0040733
        k(  132) = (  -0.8950000   0.6050000   0.0000000), wk =   0.0040733
        k(  133) = (  -0.8900000   0.6100000   0.0000000), wk =   0.0040733
        k(  134) = (  -0.8850000   0.6150000   0.0000000), wk =   0.0040733
        k(  135) = (  -0.8800000   0.6200000   0.0000000), wk =   0.0040733
        k(  136) = (  -0.8750000   0.6250000   0.0000000), wk =   0.0040733
        k(  137) = (  -0.8700000   0.6300000   0.0000000), wk =   0.0040733
        k(  138) = (  -0.8650000   0.6350000   0.0000000), wk =   0.0040733
        k(  139) = (  -0.8600000   0.6400000   0.0000000), wk =   0.0040733
        k(  140) = (  -0.8550000   0.6450000   0.0000000), wk =   0.0040733
        k(  141) = (  -0.8500000   0.6500000   0.0000000), wk =   0.0040733
        k(  142) = (  -0.8450000   0.6550000   0.0000000), wk =   0.0040733
        k(  143) = (  -0.8400000   0.6600000   0.0000000), wk =   0.0040733
        k(  144) = (  -0.8350000   0.6650000   0.0000000), wk =   0.0040733
        k(  145) = (  -0.8300000   0.6700000   0.0000000), wk =   0.0040733
        k(  146) = (  -0.8250000   0.6750000   0.0000000), wk =   0.0040733
        k(  147) = (  -0.8200000   0.6800000   0.0000000), wk =   0.0040733
        k(  148) = (  -0.8150000   0.6850000   0.0000000), wk =   0.0040733
        k(  149) = (  -0.8100000   0.6900000   0.0000000), wk =   0.0040733
        k(  150) = (  -0.8050000   0.6950000   0.0000000), wk =   0.0040733
        k(  151) = (  -0.8000000   0.7000000   0.0000000), wk =   0.0040733
        k(  152) = (  -0.7950000   0.7050000   0.0000000), wk =   0.0040733
        k(  153) = (  -0.7900000   0.7100000   0.0000000), wk =   0.0040733
        k(  154) = (  -0.7850000   0.7150000   0.0000000), wk =   0.0040733
        k(  155) = (  -0.7800000   0.7200000   0.0000000), wk =   0.0040733
        k(  156) = (  -0.7750000   0.7250000   0.0000000), wk =   0.0040733
        k(  157) = (  -0.7700000   0.7300000   0.0000000), wk =   0.0040733
        k(  158) = (  -0.7650000   0.7350000   0.0000000), wk =   0.0040733
        k(  159) = (  -0.7600000   0.7400000   0.0000000), wk =   0.0040733
        k(  160) = (  -0.7550000   0.7450000   0.0000000), wk =   0.0040733
        k(  161) = (  -0.7500000   0.7500000   0.0000000), wk =   0.0040733
        k(  162) = (  -0.7350000   0.7350000   0.0000000), wk =   0.0040733
        k(  163) = (  -0.7200000   0.7200000   0.0000000), wk =   0.0040733
        k(  164) = (  -0.7050000   0.7050000   0.0000000), wk =   0.0040733
        k(  165) = (  -0.6900000   0.6900000   0.0000000), wk =   0.0040733
        k(  166) = (  -0.6750000   0.6750000   0.0000000), wk =   0.0040733
        k(  167) = (  -0.6600000   0.6600000   0.0000000), wk =   0.0040733
        k(  168) = (  -0.6450000   0.6450000   0.0000000), wk =   0.0040733
        k(  169) = (  -0.6300000   0.6300000   0.0000000), wk =   0.0040733
        k(  170) = (  -0.6150000   0.6150000   0.0000000), wk =   0.0040733
        k(  171) = (  -0.6000000   0.6000000   0.0000000), wk =   0.0040733
        k(  172) = (  -0.5850000   0.5850000   0.0000000), wk =   0.0040733
        k(  173) = (  -0.5700000   0.5700000   0.0000000), wk =   0.0040733
        k(  174) = (  -0.5550000   0.5550000   0.0000000), wk =   0.0040733
        k(  175) = (  -0.5400000   0.5400000   0.0000000), wk =   0.0040733
        k(  176) = (  -0.5250000   0.5250000   0.0000000), wk =   0.0040733
        k(  177) = (  -0.5100000   0.5100000   0.0000000), wk =   0.0040733
        k(  178) = (  -0.4950000   0.4950000   0.0000000), wk =   0.0040733
        k(  179) = (  -0.4800000   0.4800000   0.0000000), wk =   0.0040733
        k(  180) = (  -0.4650000   0.4650000   0.0000000), wk =   0.0040733
        k(  181) = (  -0.4500000   0.4500000   0.0000000), wk =   0.0040733
        k(  182) = (  -0.4350000   0.4350000   0.0000000), wk =   0.0040733
        k(  183) = (  -0.4200000   0.4200000   0.0000000), wk =   0.0040733
        k(  184) = (  -0.4050000   0.4050000   0.0000000), wk =   0.0040733
        k(  185) = (  -0.3900000   0.3900000   0.0000000), wk =   0.0040733
        k(  186) = (  -0.3750000   0.3750000   0.0000000), wk =   0.0040733
        k(  187) = (  -0.3600000   0.3600000   0.0000000), wk =   0.0040733
        k(  188) = (  -0.3450000   0.3450000   0.0000000), wk =   0.0040733
        k(  189) = (  -0.3300000   0.3300000   0.0000000), wk =   0.0040733
        k(  190) = (  -0.3150000   0.3150000   0.0000000), wk =   0.0040733
        k(  191) = (  -0.3000000   0.3000000   0.0000000), wk =   0.0040733
        k(  192) = (  -0.2850000   0.2850000   0.0000000), wk =   0.0040733
        k(  193) = (  -0.2700000   0.2700000   0.0000000), wk =   0.0040733
        k(  194) = (  -0.2550000   0.2550000   0.0000000), wk =   0.0040733
        k(  195) = (  -0.2400000   0.2400000   0.0000000), wk =   0.0040733
        k(  196) = (  -0.2250000   0.2250000   0.0000000), wk =   0.0040733
        k(  197) = (  -0.2100000   0.2100000   0.0000000), wk =   0.0040733
        k(  198) = (  -0.1950000   0.1950000   0.0000000), wk =   0.0040733
        k(  199) = (  -0.1800000   0.1800000   0.0000000), wk =   0.0040733
        k(  200) = (  -0.1650000   0.1650000   0.0000000), wk =   0.0040733
        k(  201) = (  -0.1500000   0.1500000   0.0000000), wk =   0.0040733
        k(  202) = (  -0.1350000   0.1350000   0.0000000), wk =   0.0040733
        k(  203) = (  -0.1200000   0.1200000   0.0000000), wk =   0.0040733
        k(  204) = (  -0.1050000   0.1050000   0.0000000), wk =   0.0040733
        k(  205) = (  -0.0900000   0.0900000   0.0000000), wk =   0.0040733
        k(  206) = (  -0.0750000   0.0750000   0.0000000), wk =   0.0040733
        k(  207) = (  -0.0600000   0.0600000   0.0000000), wk =   0.0040733
        k(  208) = (  -0.0450000   0.0450000   0.0000000), wk =   0.0040733
        k(  209) = (  -0.0300000   0.0300000   0.0000000), wk =   0.0040733
        k(  210) = (  -0.0150000   0.0150000   0.0000000), wk =   0.0040733
        k(  211) = (   0.0000000   0.0000000   0.0000000), wk =   0.0040733
        k(  212) = (  -0.0083333   0.0083333   0.0083333), wk =   0.0040733
        k(  213) = (  -0.0166667   0.0166667   0.0166667), wk =   0.0040733
        k(  214) = (  -0.0250000   0.0250000   0.0250000), wk =   0.0040733
        k(  215) = (  -0.0333333   0.0333333   0.0333333), wk =   0.0040733
        k(  216) = (  -0.0416667   0.0416667   0.0416667), wk =   0.0040733
        k(  217) = (  -0.0500000   0.0500000   0.0500000), wk =   0.0040733
        k(  218) = (  -0.0583333   0.0583333   0.0583333), wk =   0.0040733
        k(  219) = (  -0.0666667   0.0666667   0.0666667), wk =   0.0040733
        k(  220) = (  -0.0750000   0.0750000   0.0750000), wk =   0.0040733
        k(  221) = (  -0.0833333   0.0833333   0.0833333), wk =   0.0040733
        k(  222) = (  -0.0916667   0.0916667   0.0916667), wk =   0.0040733
        k(  223) = (  -0.1000000   0.1000000   0.1000000), wk =   0.0040733
        k(  224) = (  -0.1083333   0.1083333   0.1083333), wk =   0.0040733
        k(  225) = (  -0.1166667   0.1166667   0.1166667), wk =   0.0040733
        k(  226) = (  -0.1250000   0.1250000   0.1250000), wk =   0.0040733
        k(  227) = (  -0.1333333   0.1333333   0.1333333), wk =   0.0040733
        k(  228) = (  -0.1416667   0.1416667   0.1416667), wk =   0.0040733
        k(  229) = (  -0.1500000   0.1500000   0.1500000), wk =   0.0040733
        k(  230) = (  -0.1583333   0.1583333   0.1583333), wk =   0.0040733
        k(  231) = (  -0.1666667   0.1666667   0.1666667), wk =   0.0040733
        k(  232) = (  -0.1750000   0.1750000   0.1750000), wk =   0.0040733
        k(  233) = (  -0.1833333   0.1833333   0.1833333), wk =   0.0040733
        k(  234) = (  -0.1916667   0.1916667   0.1916667), wk =   0.0040733
        k(  235) = (  -0.2000000   0.2000000   0.2000000), wk =   0.0040733
        k(  236) = (  -0.2083333   0.2083333   0.2083333), wk =   0.0040733
        k(  237) = (  -0.2166667   0.2166667   0.2166667), wk =   0.0040733
        k(  238) = (  -0.2250000   0.2250000   0.2250000), wk =   0.0040733
        k(  239) = (  -0.2333333   0.2333333   0.2333333), wk =   0.0040733
        k(  240) = (  -0.2416667   0.2416667   0.2416667), wk =   0.0040733
        k(  241) = (  -0.2500000   0.2500000   0.2500000), wk =   0.0040733
        k(  242) = (  -0.2583333   0.2583333   0.2583333), wk =   0.0040733
        k(  243) = (  -0.2666667   0.2666667   0.2666667), wk =   0.0040733
        k(  244) = (  -0.2750000   0.2750000   0.2750000), wk =   0.0040733
        k(  245) = (  -0.2833333   0.2833333   0.2833333), wk =   0.0040733
        k(  246) = (  -0.2916667   0.2916667   0.2916667), wk =   0.0040733
        k(  247) = (  -0.3000000   0.3000000   0.3000000), wk =   0.0040733
        k(  248) = (  -0.3083333   0.3083333   0.3083333), wk =   0.0040733
        k(  249) = (  -0.3166667   0.3166667   0.3166667), wk =   0.0040733
        k(  250) = (  -0.3250000   0.3250000   0.3250000), wk =   0.0040733
        k(  251) = (  -0.3333333   0.3333333   0.3333333), wk =   0.0040733
        k(  252) = (  -0.3416667   0.3416667   0.3416667), wk =   0.0040733
        k(  253) = (  -0.3500000   0.3500000   0.3500000), wk =   0.0040733
        k(  254) = (  -0.3583333   0.3583333   0.3583333), wk =   0.0040733
        k(  255) = (  -0.3666667   0.3666667   0.3666667), wk =   0.0040733
        k(  256) = (  -0.3750000   0.3750000   0.3750000), wk =   0.0040733
        k(  257) = (  -0.3833333   0.3833333   0.3833333), wk =   0.0040733
        k(  258) = (  -0.3916667   0.3916667   0.3916667), wk =   0.0040733
        k(  259) = (  -0.4000000   0.4000000   0.4000000), wk =   0.0040733
        k(  260) = (  -0.4083333   0.4083333   0.4083333), wk =   0.0040733
        k(  261) = (  -0.4166667   0.4166667   0.4166667), wk =   0.0040733
        k(  262) = (  -0.4250000   0.4250000   0.4250000), wk =   0.0040733
        k(  263) = (  -0.4333333   0.4333333   0.4333333), wk =   0.0040733
        k(  264) = (  -0.4416667   0.4416667   0.4416667), wk =   0.0040733
        k(  265) = (  -0.4500000   0.4500000   0.4500000), wk =   0.0040733
        k(  266) = (  -0.4583333   0.4583333   0.4583333), wk =   0.0040733
        k(  267) = (  -0.4666667   0.4666667   0.4666667), wk =   0.0040733
        k(  268) = (  -0.4750000   0.4750000   0.4750000), wk =   0.0040733
        k(  269) = (  -0.4833333   0.4833333   0.4833333), wk =   0.0040733
        k(  270) = (  -0.4916667   0.4916667   0.4916667), wk =   0.0040733
        k(  271) = (  -0.5000000   0.5000000   0.5000000), wk =   0.0040733
        k(  272) = (  -0.5083333   0.4958333   0.4958333), wk =   0.0040733
        k(  273) = (  -0.5166667   0.4916667   0.4916667), wk =   0.0040733
        k(  274) = (  -0.5250000   0.4875000   0.4875000), wk =   0.0040733
        k(  275) = (  -0.5333333   0.4833333   0.4833333), wk =   0.0040733
        k(  276) = (  -0.5416667   0.4791667   0.4791667), wk =   0.0040733
        k(  277) = (  -0.5500000   0.4750000   0.4750000), wk =   0.0040733
        k(  278) = (  -0.5583333   0.4708333   0.4708333), wk =   0.0040733
        k(  279) = (  -0.5666667   0.4666667   0.4666667), wk =   0.0040733
        k(  280) = (  -0.5750000   0.4625000   0.4625000), wk =   0.0040733
        k(  281) = (  -0.5833333   0.4583333   0.4583333), wk =   0.0040733
        k(  282) = (  -0.5916667   0.4541667   0.4541667), wk =   0.0040733
        k(  283) = (  -0.6000000   0.4500000   0.4500000), wk =   0.0040733
        k(  284) = (  -0.6083333   0.4458333   0.4458333), wk =   0.0040733
        k(  285) = (  -0.6166667   0.4416667   0.4416667), wk =   0.0040733
        k(  286) = (  -0.6250000   0.4375000   0.4375000), wk =   0.0040733
        k(  287) = (  -0.6333333   0.4333333   0.4333333), wk =   0.0040733
        k(  288) = (  -0.6416667   0.4291667   0.4291667), wk =   0.0040733
        k(  289) = (  -0.6500000   0.4250000   0.4250000), wk =   0.0040733
        k(  290) = (  -0.6583333   0.4208333   0.4208333), wk =   0.0040733
        k(  291) = (  -0.6666667   0.4166667   0.4166667), wk =   0.0040733
        k(  292) = (  -0.6750000   0.4125000   0.4125000), wk =   0.0040733
        k(  293) = (  -0.6833333   0.4083333   0.4083333), wk =   0.0040733
        k(  294) = (  -0.6916667   0.4041667   0.4041667), wk =   0.0040733
        k(  295) = (  -0.7000000   0.4000000   0.4000000), wk =   0.0040733
        k(  296) = (  -0.7083333   0.3958333   0.3958333), wk =   0.0040733
        k(  297) = (  -0.7166667   0.3916667   0.3916667), wk =   0.0040733
        k(  298) = (  -0.7250000   0.3875000   0.3875000), wk =   0.0040733
        k(  299) = (  -0.7333333   0.3833333   0.3833333), wk =   0.0040733
        k(  300) = (  -0.7416667   0.3791667   0.3791667), wk =   0.0040733
        k(  301) = (  -0.7500000   0.3750000   0.3750000), wk =   0.0040733
        k(  302) = (  -0.7583333   0.3708333   0.3708333), wk =   0.0040733
        k(  303) = (  -0.7666667   0.3666667   0.3666667), wk =   0.0040733
        k(  304) = (  -0.7750000   0.3625000   0.3625000), wk =   0.0040733
        k(  305) = (  -0.7833333   0.3583333   0.3583333), wk =   0.0040733
        k(  306) = (  -0.7916667   0.3541667   0.3541667), wk =   0.0040733
        k(  307) = (  -0.8000000   0.3500000   0.3500000), wk =   0.0040733
        k(  308) = (  -0.8083333   0.3458333   0.3458333), wk =   0.0040733
        k(  309) = (  -0.8166667   0.3416667   0.3416667), wk =   0.0040733
        k(  310) = (  -0.8250000   0.3375000   0.3375000), wk =   0.0040733
        k(  311) = (  -0.8333333   0.3333333   0.3333333), wk =   0.0040733
        k(  312) = (  -0.8416667   0.3291667   0.3291667), wk =   0.0040733
        k(  313) = (  -0.8500000   0.3250000   0.3250000), wk =   0.0040733
        k(  314) = (  -0.8583333   0.3208333   0.3208333), wk =   0.0040733
        k(  315) = (  -0.8666667   0.3166667   0.3166667), wk =   0.0040733
        k(  316) = (  -0.8750000   0.3125000   0.3125000), wk =   0.0040733
        k(  317) = (  -0.8833333   0.3083333   0.3083333), wk =   0.0040733
        k(  318) = (  -0.8916667   0.3041667   0.3041667), wk =   0.0040733
        k(  319) = (  -0.9000000   0.3000000   0.3000000), wk =   0.0040733
        k(  320) = (  -0.9083333   0.2958333   0.2958333), wk =   0.0040733
        k(  321) = (  -0.9166667   0.2916667   0.2916667), wk =   0.0040733
        k(  322) = (  -0.9250000   0.2875000   0.2875000), wk =   0.0040733
        k(  323) = (  -0.9333333   0.2833333   0.2833333), wk =   0.0040733
        k(  324) = (  -0.9416667   0.2791667   0.2791667), wk =   0.0040733
        k(  325) = (  -0.9500000   0.2750000   0.2750000), wk =   0.0040733
        k(  326) = (  -0.9583333   0.2708333   0.2708333), wk =   0.0040733
        k(  327) = (  -0.9666667   0.2666667   0.2666667), wk =   0.0040733
        k(  328) = (  -0.9750000   0.2625000   0.2625000), wk =   0.0040733
        k(  329) = (  -0.9833333   0.2583333   0.2583333), wk =   0.0040733
        k(  330) = (  -0.9916667   0.2541667   0.2541667), wk =   0.0040733
        k(  331) = (  -1.0000000   0.2500000   0.2500000), wk =   0.0040733
        k(  332) = (  -1.0000000   0.2550000   0.2450000), wk =   0.0040733
        k(  333) = (  -1.0000000   0.2600000   0.2400000), wk =   0.0040733
        k(  334) = (  -1.0000000   0.2650000   0.2350000), wk =   0.0040733
        k(  335) = (  -1.0000000   0.2700000   0.2300000), wk =   0.0040733
        k(  336) = (  -1.0000000   0.2750000   0.2250000), wk =   0.0040733
        k(  337) = (  -1.0000000   0.2800000   0.2200000), wk =   0.0040733
        k(  338) = (  -1.0000000   0.2850000   0.2150000), wk =   0.0040733
        k(  339) = (  -1.0000000   0.2900000   0.2100000), wk =   0.0040733
        k(  340) = (  -1.0000000   0.2950000   0.2050000), wk =   0.0040733
        k(  341) = (  -1.0000000   0.3000000   0.2000000), wk =   0.0040733
        k(  342) = (  -1.0000000   0.3050000   0.1950000), wk =   0.0040733
        k(  343) = (  -1.0000000   0.3100000   0.1900000), wk =   0.0040733
        k(  344) = (  -1.0000000   0.3150000   0.1850000), wk =   0.0040733
        k(  345) = (  -1.0000000   0.3200000   0.1800000), wk =   0.0040733
        k(  346) = (  -1.0000000   0.3250000   0.1750000), wk =   0.0040733
        k(  347) = (  -1.0000000   0.3300000   0.1700000), wk =   0.0040733
        k(  348) = (  -1.0000000   0.3350000   0.1650000), wk =   0.0040733
        k(  349) = (  -1.0000000   0.3400000   0.1600000), wk =   0.0040733
        k(  350) = (  -1.0000000   0.3450000   0.1550000), wk =   0.0040733
        k(  351) = (  -1.0000000   0.3500000   0.1500000), wk =   0.0040733
        k(  352) = (  -1.0000000   0.3550000   0.1450000), wk =   0.0040733
        k(  353) = (  -1.0000000   0.3600000   0.1400000), wk =   0.0040733
        k(  354) = (  -1.0000000   0.3650000   0.1350000), wk =   0.0040733
        k(  355) = (  -1.0000000   0.3700000   0.1300000), wk =   0.0040733
        k(  356) = (  -1.0000000   0.3750000   0.1250000), wk =   0.0040733
        k(  357) = (  -1.0000000   0.3800000   0.1200000), wk =   0.0040733
        k(  358) = (  -1.0000000   0.3850000   0.1150000), wk =   0.0040733
        k(  359) = (  -1.0000000   0.3900000   0.1100000), wk =   0.0040733
        k(  360) = (  -1.0000000   0.3950000   0.1050000), wk =   0.0040733
        k(  361) = (  -1.0000000   0.4000000   0.1000000), wk =   0.0040733
        k(  362) = (  -1.0000000   0.4050000   0.0950000), wk =   0.0040733
        k(  363) = (  -1.0000000   0.4100000   0.0900000), wk =   0.0040733
        k(  364) = (  -1.0000000   0.4150000   0.0850000), wk =   0.0040733
        k(  365) = (  -1.0000000   0.4200000   0.0800000), wk =   0.0040733
        k(  366) = (  -1.0000000   0.4250000   0.0750000), wk =   0.0040733
        k(  367) = (  -1.0000000   0.4300000   0.0700000), wk =   0.0040733
        k(  368) = (  -1.0000000   0.4350000   0.0650000), wk =   0.0040733
        k(  369) = (  -1.0000000   0.4400000   0.0600000), wk =   0.0040733
        k(  370) = (  -1.0000000   0.4450000   0.0550000), wk =   0.0040733
        k(  371) = (  -1.0000000   0.4500000   0.0500000), wk =   0.0040733
        k(  372) = (  -1.0000000   0.4550000   0.0450000), wk =   0.0040733
        k(  373) = (  -1.0000000   0.4600000   0.0400000), wk =   0.0040733
        k(  374) = (  -1.0000000   0.4650000   0.0350000), wk =   0.0040733
        k(  375) = (  -1.0000000   0.4700000   0.0300000), wk =   0.0040733
        k(  376) = (  -1.0000000   0.4750000   0.0250000), wk =   0.0040733
        k(  377) = (  -1.0000000   0.4800000   0.0200000), wk =   0.0040733
        k(  378) = (  -1.0000000   0.4850000   0.0150000), wk =   0.0040733
        k(  379) = (  -1.0000000   0.4900000   0.0100000), wk =   0.0040733
        k(  380) = (  -1.0000000   0.4950000   0.0050000), wk =   0.0040733
        k(  381) = (  -1.0000000   0.5000000   0.0000000), wk =   0.0040733
        k(  382) = (  -0.9900000   0.5000000   0.0100000), wk =   0.0040733
        k(  383) = (  -0.9800000   0.5000000   0.0200000), wk =   0.0040733
        k(  384) = (  -0.9700000   0.5000000   0.0300000), wk =   0.0040733
        k(  385) = (  -0.9600000   0.5000000   0.0400000), wk =   0.0040733
        k(  386) = (  -0.9500000   0.5000000   0.0500000), wk =   0.0040733
        k(  387) = (  -0.9400000   0.5000000   0.0600000), wk =   0.0040733
        k(  388) = (  -0.9300000   0.5000000   0.0700000), wk =   0.0040733
        k(  389) = (  -0.9200000   0.5000000   0.0800000), wk =   0.0040733
        k(  390) = (  -0.9100000   0.5000000   0.0900000), wk =   0.0040733
        k(  391) = (  -0.9000000   0.5000000   0.1000000), wk =   0.0040733
        k(  392) = (  -0.8900000   0.5000000   0.1100000), wk =   0.0040733
        k(  393) = (  -0.8800000   0.5000000   0.1200000), wk =   0.0040733
        k(  394) = (  -0.8700000   0.5000000   0.1300000), wk =   0.0040733
        k(  395) = (  -0.8600000   0.5000000   0.1400000), wk =   0.0040733
        k(  396) = (  -0.8500000   0.5000000   0.1500000), wk =   0.0040733
        k(  397) = (  -0.8400000   0.5000000   0.1600000), wk =   0.0040733
        k(  398) = (  -0.8300000   0.5000000   0.1700000), wk =   0.0040733
        k(  399) = (  -0.8200000   0.5000000   0.1800000), wk =   0.0040733
        k(  400) = (  -0.8100000   0.5000000   0.1900000), wk =   0.0040733
        k(  401) = (  -0.8000000   0.5000000   0.2000000), wk =   0.0040733
        k(  402) = (  -0.7900000   0.5000000   0.2100000), wk =   0.0040733
        k(  403) = (  -0.7800000   0.5000000   0.2200000), wk =   0.0040733
        k(  404) = (  -0.7700000   0.5000000   0.2300000), wk =   0.0040733
        k(  405) = (  -0.7600000   0.5000000   0.2400000), wk =   0.0040733
        k(  406) = (  -0.7500000   0.5000000   0.2500000), wk =   0.0040733
        k(  407) = (  -0.7400000   0.5000000   0.2600000), wk =   0.0040733
        k(  408) = (  -0.7300000   0.5000000   0.2700000), wk =   0.0040733
        k(  409) = (  -0.7200000   0.5000000   0.2800000), wk =   0.0040733
        k(  410) = (  -0.7100000   0.5000000   0.2900000), wk =   0.0040733
        k(  411) = (  -0.7000000   0.5000000   0.3000000), wk =   0.0040733
        k(  412) = (  -0.6900000   0.5000000   0.3100000), wk =   0.0040733
        k(  413) = (  -0.6800000   0.5000000   0.3200000), wk =   0.0040733
        k(  414) = (  -0.6700000   0.5000000   0.3300000), wk =   0.0040733
        k(  415) = (  -0.6600000   0.5000000   0.3400000), wk =   0.0040733
        k(  416) = (  -0.6500000   0.5000000   0.3500000), wk =   0.0040733
        k(  417) = (  -0.6400000   0.5000000   0.3600000), wk =   0.0040733
        k(  418) = (  -0.6300000   0.5000000   0.3700000), wk =   0.0040733
        k(  419) = (  -0.6200000   0.5000000   0.3800000), wk =   0.0040733
        k(  420) = (  -0.6100000   0.5000000   0.3900000), wk =   0.0040733
        k(  421) = (  -0.6000000   0.5000000   0.4000000), wk =   0.0040733
        k(  422) = (  -0.5900000   0.5000000   0.4100000), wk =   0.0040733
        k(  423) = (  -0.5800000   0.5000000   0.4200000), wk =   0.0040733
        k(  424) = (  -0.5700000   0.5000000   0.4300000), wk =   0.0040733
        k(  425) = (  -0.5600000   0.5000000   0.4400000), wk =   0.0040733
        k(  426) = (  -0.5500000   0.5000000   0.4500000), wk =   0.0040733
        k(  427) = (  -0.5400000   0.5000000   0.4600000), wk =   0.0040733
        k(  428) = (  -0.5300000   0.5000000   0.4700000), wk =   0.0040733
        k(  429) = (  -0.5200000   0.5000000   0.4800000), wk =   0.0040733
        k(  430) = (  -0.5100000   0.5000000   0.4900000), wk =   0.0040733
        k(  431) = (  -0.5000000   0.5000000   0.5000000), wk =   0.0040733
        k(  432) = (  -0.5041667   0.5041667   0.4916667), wk =   0.0040733
        k(  433) = (  -0.5083333   0.5083333   0.4833333), wk =   0.0040733
        k(  434) = (  -0.5125000   0.5125000   0.4750000), wk =   0.0040733
        k(  435) = (  -0.5166667   0.5166667   0.4666667), wk =   0.0040733
        k(  436) = (  -0.5208333   0.5208333   0.4583333), wk =   0.0040733
        k(  437) = (  -0.5250000   0.5250000   0.4500000), wk =   0.0040733
        k(  438) = (  -0.5291667   0.5291667   0.4416667), wk =   0.0040733
        k(  439) = (  -0.5333333   0.5333333   0.4333333), wk =   0.0040733
        k(  440) = (  -0.5375000   0.5375000   0.4250000), wk =   0.0040733
        k(  441) = (  -0.5416667   0.5416667   0.4166667), wk =   0.0040733
        k(  442) = (  -0.5458333   0.5458333   0.4083333), wk =   0.0040733
        k(  443) = (  -0.5500000   0.5500000   0.4000000), wk =   0.0040733
        k(  444) = (  -0.5541667   0.5541667   0.3916667), wk =   0.0040733
        k(  445) = (  -0.5583333   0.5583333   0.3833333), wk =   0.0040733
        k(  446) = (  -0.5625000   0.5625000   0.3750000), wk =   0.0040733
        k(  447) = (  -0.5666667   0.5666667   0.3666667), wk =   0.0040733
        k(  448) = (  -0.5708333   0.5708333   0.3583333), wk =   0.0040733
        k(  449) = (  -0.5750000   0.5750000   0.3500000), wk =   0.0040733
        k(  450) = (  -0.5791667   0.5791667   0.3416667), wk =   0.0040733
        k(  451) = (  -0.5833333   0.5833333   0.3333333), wk =   0.0040733
        k(  452) = (  -0.5875000   0.5875000   0.3250000), wk =   0.0040733
        k(  453) = (  -0.5916667   0.5916667   0.3166667), wk =   0.0040733
        k(  454) = (  -0.5958333   0.5958333   0.3083333), wk =   0.0040733
        k(  455) = (  -0.6000000   0.6000000   0.3000000), wk =   0.0040733
        k(  456) = (  -0.6041667   0.6041667   0.2916667), wk =   0.0040733
        k(  457) = (  -0.6083333   0.6083333   0.2833333), wk =   0.0040733
        k(  458) = (  -0.6125000   0.6125000   0.2750000), wk =   0.0040733
        k(  459) = (  -0.6166667   0.6166667   0.2666667), wk =   0.0040733
        k(  460) = (  -0.6208333   0.6208333   0.2583333), wk =   0.0040733
        k(  461) = (  -0.6250000   0.6250000   0.2500000), wk =   0.0040733
        k(  462) = (  -0.6291667   0.6291667   0.2416667), wk =   0.0040733
        k(  463) = (  -0.6333333   0.6333333   0.2333333), wk =   0.0040733
        k(  464) = (  -0.6375000   0.6375000   0.2250000), wk =   0.0040733
        k(  465) = (  -0.6416667   0.6416667   0.2166667), wk =   0.0040733
        k(  466) = (  -0.6458333   0.6458333   0.2083333), wk =   0.0040733
        k(  467) = (  -0.6500000   0.6500000   0.2000000), wk =   0.0040733
        k(  468) = (  -0.6541667   0.6541667   0.1916667), wk =   0.0040733
        k(  469) = (  -0.6583333   0.6583333   0.1833333), wk =   0.0040733
        k(  470) = (  -0.6625000   0.6625000   0.1750000), wk =   0.0040733
        k(  471) = (  -0.6666667   0.6666667   0.1666667), wk =   0.0040733
        k(  472) = (  -0.6708333   0.6708333   0.1583333), wk =   0.0040733
        k(  473) = (  -0.6750000   0.6750000   0.1500000), wk =   0.0040733
        k(  474) = (  -0.6791667   0.6791667   0.1416667), wk =   0.0040733
        k(  475) = (  -0.6833333   0.6833333   0.1333333), wk =   0.0040733
        k(  476) = (  -0.6875000   0.6875000   0.1250000), wk =   0.0040733
        k(  477) = (  -0.6916667   0.6916667   0.1166667), wk =   0.0040733
        k(  478) = (  -0.6958333   0.6958333   0.1083333), wk =   0.0040733
        k(  479) = (  -0.7000000   0.7000000   0.1000000), wk =   0.0040733
        k(  480) = (  -0.7041667   0.7041667   0.0916667), wk =   0.0040733
        k(  481) = (  -0.7083333   0.7083333   0.0833333), wk =   0.0040733
        k(  482) = (  -0.7125000   0.7125000   0.0750000), wk =   0.0040733
        k(  483) = (  -0.7166667   0.7166667   0.0666667), wk =   0.0040733
        k(  484) = (  -0.7208333   0.7208333   0.0583333), wk =   0.0040733
        k(  485) = (  -0.7250000   0.7250000   0.0500000), wk =   0.0040733
        k(  486) = (  -0.7291667   0.7291667   0.0416667), wk =   0.0040733
        k(  487) = (  -0.7333333   0.7333333   0.0333333), wk =   0.0040733
        k(  488) = (  -0.7375000   0.7375000   0.0250000), wk =   0.0040733
        k(  489) = (  -0.7416667   0.7416667   0.0166667), wk =   0.0040733
        k(  490) = (  -0.7458333   0.7458333   0.0083333), wk =   0.0040733
        k(  491) = (  -0.7500000   0.7500000   0.0000000), wk =   0.0040733

                       cryst. coord.
        k(    1) = (   0.0000000   0.0000000   0.0000000), wk =   0.0040733
        k(    2) = (   0.0083333   0.0000000   0.0083333), wk =   0.0040733
        k(    3) = (   0.0166667   0.0000000   0.0166667), wk =   0.0040733
        k(    4) = (   0.0250000   0.0000000   0.0250000), wk =   0.0040733
        k(    5) = (   0.0333333   0.0000000   0.0333333), wk =   0.0040733
        k(    6) = (   0.0416667   0.0000000   0.0416667), wk =   0.0040733
        k(    7) = (   0.0500000   0.0000000   0.0500000), wk =   0.0040733
        k(    8) = (   0.0583333   0.0000000   0.0583333), wk =   0.0040733
        k(    9) = (   0.0666667   0.0000000   0.0666667), wk =   0.0040733
        k(   10) = (   0.0750000   0.0000000   0.0750000), wk =   0.0040733
        k(   11) = (   0.0833333   0.0000000   0.0833333), wk =   0.0040733
        k(   12) = (   0.0916667   0.0000000   0.0916667), wk =   0.0040733
        k(   13) = (   0.1000000   0.0000000   0.1000000), wk =   0.0040733
        k(   14) = (   0.1083333   0.0000000   0.1083333), wk =   0.0040733
        k(   15) = (   0.1166667   0.0000000   0.1166667), wk =   0.0040733
        k(   16) = (   0.1250000   0.0000000   0.1250000), wk =   0.0040733
        k(   17) = (   0.1333333   0.0000000   0.1333333), wk =   0.0040733
        k(   18) = (   0.1416667   0.0000000   0.1416667), wk =   0.0040733
        k(   19) = (   0.1500000   0.0000000   0.1500000), wk =   0.0040733
        k(   20) = (   0.1583333   0.0000000   0.1583333), wk =   0.0040733
        k(   21) = (   0.1666667   0.0000000   0.1666667), wk =   0.0040733
        k(   22) = (   0.1750000   0.0000000   0.1750000), wk =   0.0040733
        k(   23) = (   0.1833333   0.0000000   0.1833333), wk =   0.0040733
        k(   24) = (   0.1916667   0.0000000   0.1916667), wk =   0.0040733
        k(   25) = (   0.2000000   0.0000000   0.2000000), wk =   0.0040733
        k(   26) = (   0.2083333   0.0000000   0.2083333), wk =   0.0040733
        k(   27) = (   0.2166667   0.0000000   0.2166667), wk =   0.0040733
        k(   28) = (   0.2250000   0.0000000   0.2250000), wk =   0.0040733
        k(   29) = (   0.2333333   0.0000000   0.2333333), wk =   0.0040733
        k(   30) = (   0.2416667   0.0000000   0.2416667), wk =   0.0040733
        k(   31) = (   0.2500000   0.0000000   0.2500000), wk =   0.0040733
        k(   32) = (   0.2583333   0.0000000   0.2583333), wk =   0.0040733
        k(   33) = (   0.2666667   0.0000000   0.2666667), wk =   0.0040733
        k(   34) = (   0.2750000   0.0000000   0.2750000), wk =   0.0040733
        k(   35) = (   0.2833333   0.0000000   0.2833333), wk =   0.0040733
        k(   36) = (   0.2916667   0.0000000   0.2916667), wk =   0.0040733
        k(   37) = (   0.3000000   0.0000000   0.3000000), wk =   0.0040733
        k(   38) = (   0.3083333   0.0000000   0.3083333), wk =   0.0040733
        k(   39) = (   0.3166667   0.0000000   0.3166667), wk =   0.0040733
        k(   40) = (   0.3250000   0.0000000   0.3250000), wk =   0.0040733
        k(   41) = (   0.3333333   0.0000000   0.3333333), wk =   0.0040733
        k(   42) = (   0.3416667   0.0000000   0.3416667), wk =   0.0040733
        k(   43) = (   0.3500000   0.0000000   0.3500000), wk =   0.0040733
        k(   44) = (   0.3583333   0.0000000   0.3583333), wk =   0.0040733
        k(   45) = (   0.3666667   0.0000000   0.3666667), wk =   0.0040733
        k(   46) = (   0.3750000   0.0000000   0.3750000), wk =   0.0040733
        k(   47) = (   0.3833333   0.0000000   0.3833333), wk =   0.0040733
        k(   48) = (   0.3916667   0.0000000   0.3916667), wk =   0.0040733
        k(   49) = (   0.4000000   0.0000000   0.4000000), wk =   0.0040733
        k(   50) = (   0.4083333   0.0000000   0.4083333), wk =   0.0040733
        k(   51) = (   0.4166667   0.0000000   0.4166667), wk =   0.0040733
        k(   52) = (   0.4250000   0.0000000   0.4250000), wk =   0.0040733
        k(   53) = (   0.4333333   0.0000000   0.4333333), wk =   0.0040733
        k(   54) = (   0.4416667   0.0000000   0.4416667), wk =   0.0040733
        k(   55) = (   0.4500000   0.0000000   0.4500000), wk =   0.0040733
        k(   56) = (   0.4583333   0.0000000   0.4583333), wk =   0.0040733
        k(   57) = (   0.4666667   0.0000000   0.4666667), wk =   0.0040733
        k(   58) = (   0.4750000   0.0000000   0.4750000), wk =   0.0040733
        k(   59) = (   0.4833333   0.0000000   0.4833333), wk =   0.0040733
        k(   60) = (   0.4916667   0.0000000   0.4916667), wk =   0.0040733
        k(   61) = (   0.5000000   0.0000000   0.5000000), wk =   0.0040733
        k(   62) = (   0.5000000   0.0050000   0.5050000), wk =   0.0040733
        k(   63) = (   0.5000000   0.0100000   0.5100000), wk =   0.0040733
        k(   64) = (   0.5000000   0.0150000   0.5150000), wk =   0.0040733
        k(   65) = (   0.5000000   0.0200000   0.5200000), wk =   0.0040733
        k(   66) = (   0.5000000   0.0250000   0.5250000), wk =   0.0040733
        k(   67) = (   0.5000000   0.0300000   0.5300000), wk =   0.0040733
        k(   68) = (   0.5000000   0.0350000   0.5350000), wk =   0.0040733
        k(   69) = (   0.5000000   0.0400000   0.5400000), wk =   0.0040733
        k(   70) = (   0.5000000   0.0450000   0.5450000), wk =   0.0040733
        k(   71) = (   0.5000000   0.0500000   0.5500000), wk =   0.0040733
        k(   72) = (   0.5000000   0.0550000   0.5550000), wk =   0.0040733
        k(   73) = (   0.5000000   0.0600000   0.5600000), wk =   0.0040733
        k(   74) = (   0.5000000   0.0650000   0.5650000), wk =   0.0040733
        k(   75) = (   0.5000000   0.0700000   0.5700000), wk =   0.0040733
        k(   76) = (   0.5000000   0.0750000   0.5750000), wk =   0.0040733
        k(   77) = (   0.5000000   0.0800000   0.5800000), wk =   0.0040733
        k(   78) = (   0.5000000   0.0850000   0.5850000), wk =   0.0040733
        k(   79) = (   0.5000000   0.0900000   0.5900000), wk =   0.0040733
        k(   80) = (   0.5000000   0.0950000   0.5950000), wk =   0.0040733
        k(   81) = (   0.5000000   0.1000000   0.6000000), wk =   0.0040733
        k(   82) = (   0.5000000   0.1050000   0.6050000), wk =   0.0040733
        k(   83) = (   0.5000000   0.1100000   0.6100000), wk =   0.0040733
        k(   84) = (   0.5000000   0.1150000   0.6150000), wk =   0.0040733
        k(   85) = (   0.5000000   0.1200000   0.6200000), wk =   0.0040733
        k(   86) = (   0.5000000   0.1250000   0.6250000), wk =   0.0040733
        k(   87) = (   0.5000000   0.1300000   0.6300000), wk =   0.0040733
        k(   88) = (   0.5000000   0.1350000   0.6350000), wk =   0.0040733
        k(   89) = (   0.5000000   0.1400000   0.6400000), wk =   0.0040733
        k(   90) = (   0.5000000   0.1450000   0.6450000), wk =   0.0040733
        k(   91) = (   0.5000000   0.1500000   0.6500000), wk =   0.0040733
        k(   92) = (   0.5000000   0.1550000   0.6550000), wk =   0.0040733
        k(   93) = (   0.5000000   0.1600000   0.6600000), wk =   0.0040733
        k(   94) = (   0.5000000   0.1650000   0.6650000), wk =   0.0040733
        k(   95) = (   0.5000000   0.1700000   0.6700000), wk =   0.0040733
        k(   96) = (   0.5000000   0.1750000   0.6750000), wk =   0.0040733
        k(   97) = (   0.5000000   0.1800000   0.6800000), wk =   0.0040733
        k(   98) = (   0.5000000   0.1850000   0.6850000), wk =   0.0040733
        k(   99) = (   0.5000000   0.1900000   0.6900000), wk =   0.0040733
        k(  100) = (   0.5000000   0.1950000   0.6950000), wk =   0.0040733
        k(  101) = (   0.5000000   0.2000000   0.7000000), wk =   0.0040733
        k(  102) = (   0.5000000   0.2050000   0.7050000), wk =   0.0040733
        k(  103) = (   0.5000000   0.2100000   0.7100000), wk =   0.0040733
        k(  104) = (   0.5000000   0.2150000   0.7150000), wk =   0.0040733
        k(  105) = (   0.5000000   0.2200000   0.7200000), wk =   0.0040733
        k(  106) = (   0.5000000   0.2250000   0.7250000), wk =   0.0040733
        k(  107) = (   0.5000000   0.2300000   0.7300000), wk =   0.0040733
        k(  108) = (   0.5000000   0.2350000   0.7350000), wk =   0.0040733
        k(  109) = (   0.5000000   0.2400000   0.7400000), wk =   0.0040733
        k(  110) = (   0.5000000   0.2450000   0.7450000), wk =   0.0040733
        k(  111) = (   0.5000000   0.2500000   0.7500000), wk =   0.0040733
        k(  112) = (   0.4975000   0.2525000   0.7500000), wk =   0.0040733
        k(  113) = (   0.4950000   0.2550000   0.7500000), wk =   0.0040733
        k(  114) = (   0.4925000   0.2575000   0.7500000), wk =   0.0040733
        k(  115) = (   0.4900000   0.2600000   0.7500000), wk =   0.0040733
        k(  116) = (   0.4875000   0.2625000   0.7500000), wk =   0.0040733
        k(  117) = (   0.4850000   0.2650000   0.7500000), wk =   0.0040733
        k(  118) = (   0.4825000   0.2675000   0.7500000), wk =   0.0040733
        k(  119) = (   0.4800000   0.2700000   0.7500000), wk =   0.0040733
        k(  120) = (   0.4775000   0.2725000   0.7500000), wk =   0.0040733
        k(  121) = (   0.4750000   0.2750000   0.7500000), wk =   0.0040733
        k(  122) = (   0.4725000   0.2775000   0.7500000), wk =   0.0040733
        k(  123) = (   0.4700000   0.2800000   0.7500000), wk =   0.0040733
        k(  124) = (   0.4675000   0.2825000   0.7500000), wk =   0.0040733
        k(  125) = (   0.4650000   0.2850000   0.7500000), wk =   0.0040733
        k(  126) = (   0.4625000   0.2875000   0.7500000), wk =   0.0040733
        k(  127) = (   0.4600000   0.2900000   0.7500000), wk =   0.0040733
        k(  128) = (   0.4575000   0.2925000   0.7500000), wk =   0.0040733
        k(  129) = (   0.4550000   0.2950000   0.7500000), wk =   0.0040733
        k(  130) = (   0.4525000   0.2975000   0.7500000), wk =   0.0040733
        k(  131) = (   0.4500000   0.3000000   0.7500000), wk =   0.0040733
        k(  132) = (   0.4475000   0.3025000   0.7500000), wk =   0.0040733
        k(  133) = (   0.4450000   0.3050000   0.7500000), wk =   0.0040733
        k(  134) = (   0.4425000   0.3075000   0.7500000), wk =   0.0040733
        k(  135) = (   0.4400000   0.3100000   0.7500000), wk =   0.0040733
        k(  136) = (   0.4375000   0.3125000   0.7500000), wk =   0.0040733
        k(  137) = (   0.4350000   0.3150000   0.7500000), wk =   0.0040733
        k(  138) = (   0.4325000   0.3175000   0.7500000), wk =   0.0040733
        k(  139) = (   0.4300000   0.3200000   0.7500000), wk =   0.0040733
        k(  140) = (   0.4275000   0.3225000   0.7500000), wk =   0.0040733
        k(  141) = (   0.4250000   0.3250000   0.7500000), wk =   0.0040733
        k(  142) = (   0.4225000   0.3275000   0.7500000), wk =   0.0040733
        k(  143) = (   0.4200000   0.3300000   0.7500000), wk =   0.0040733
        k(  144) = (   0.4175000   0.3325000   0.7500000), wk =   0.0040733
        k(  145) = (   0.4150000   0.3350000   0.7500000), wk =   0.0040733
        k(  146) = (   0.4125000   0.3375000   0.7500000), wk =   0.0040733
        k(  147) = (   0.4100000   0.3400000   0.7500000), wk =   0.0040733
        k(  148) = (   0.4075000   0.3425000   0.7500000), wk =   0.0040733
        k(  149) = (   0.4050000   0.3450000   0.7500000), wk =   0.0040733
        k(  150) = (   0.4025000   0.3475000   0.7500000), wk =   0.0040733
        k(  151) = (   0.4000000   0.3500000   0.7500000), wk =   0.0040733
        k(  152) = (   0.3975000   0.3525000   0.7500000), wk =   0.0040733
        k(  153) = (   0.3950000   0.3550000   0.7500000), wk =   0.0040733
        k(  154) = (   0.3925000   0.3575000   0.7500000), wk =   0.0040733
        k(  155) = (   0.3900000   0.3600000   0.7500000), wk =   0.0040733
        k(  156) = (   0.3875000   0.3625000   0.7500000), wk =   0.0040733
        k(  157) = (   0.3850000   0.3650000   0.7500000), wk =   0.0040733
        k(  158) = (   0.3825000   0.3675000   0.7500000), wk =   0.0040733
        k(  159) = (   0.3800000   0.3700000   0.7500000), wk =   0.0040733
        k(  160) = (   0.3775000   0.3725000   0.7500000), wk =   0.0040733
        k(  161) = (   0.3750000   0.3750000   0.7500000), wk =   0.0040733
        k(  162) = (   0.3675000   0.3675000   0.7350000), wk =   0.0040733
        k(  163) = (   0.3600000   0.3600000   0.7200000), wk =   0.0040733
        k(  164) = (   0.3525000   0.3525000   0.7050000), wk =   0.0040733
        k(  165) = (   0.3450000   0.3450000   0.6900000), wk =   0.0040733
        k(  166) = (   0.3375000   0.3375000   0.6750000), wk =   0.0040733
        k(  167) = (   0.3300000   0.3300000   0.6600000), wk =   0.0040733
        k(  168) = (   0.3225000   0.3225000   0.6450000), wk =   0.0040733
        k(  169) = (   0.3150000   0.3150000   0.6300000), wk =   0.0040733
        k(  170) = (   0.3075000   0.3075000   0.6150000), wk =   0.0040733
        k(  171) = (   0.3000000   0.3000000   0.6000000), wk =   0.0040733
        k(  172) = (   0.2925000   0.2925000   0.5850000), wk =   0.0040733
        k(  173) = (   0.2850000   0.2850000   0.5700000), wk =   0.0040733
        k(  174) = (   0.2775000   0.2775000   0.5550000), wk =   0.0040733
        k(  175) = (   0.2700000   0.2700000   0.5400000), wk =   0.0040733
        k(  176) = (   0.2625000   0.2625000   0.5250000), wk =   0.0040733
        k(  177) = (   0.2550000   0.2550000   0.5100000), wk =   0.0040733
        k(  178) = (   0.2475000   0.2475000   0.4950000), wk =   0.0040733
        k(  179) = (   0.2400000   0.2400000   0.4800000), wk =   0.0040733
        k(  180) = (   0.2325000   0.2325000   0.4650000), wk =   0.0040733
        k(  181) = (   0.2250000   0.2250000   0.4500000), wk =   0.0040733
        k(  182) = (   0.2175000   0.2175000   0.4350000), wk =   0.0040733
        k(  183) = (   0.2100000   0.2100000   0.4200000), wk =   0.0040733
        k(  184) = (   0.2025000   0.2025000   0.4050000), wk =   0.0040733
        k(  185) = (   0.1950000   0.1950000   0.3900000), wk =   0.0040733
        k(  186) = (   0.1875000   0.1875000   0.3750000), wk =   0.0040733
        k(  187) = (   0.1800000   0.1800000   0.3600000), wk =   0.0040733
        k(  188) = (   0.1725000   0.1725000   0.3450000), wk =   0.0040733
        k(  189) = (   0.1650000   0.1650000   0.3300000), wk =   0.0040733
        k(  190) = (   0.1575000   0.1575000   0.3150000), wk =   0.0040733
        k(  191) = (   0.1500000   0.1500000   0.3000000), wk =   0.0040733
        k(  192) = (   0.1425000   0.1425000   0.2850000), wk =   0.0040733
        k(  193) = (   0.1350000   0.1350000   0.2700000), wk =   0.0040733
        k(  194) = (   0.1275000   0.1275000   0.2550000), wk =   0.0040733
        k(  195) = (   0.1200000   0.1200000   0.2400000), wk =   0.0040733
        k(  196) = (   0.1125000   0.1125000   0.2250000), wk =   0.0040733
        k(  197) = (   0.1050000   0.1050000   0.2100000), wk =   0.0040733
        k(  198) = (   0.0975000   0.0975000   0.1950000), wk =   0.0040733
        k(  199) = (   0.0900000   0.0900000   0.1800000), wk =   0.0040733
        k(  200) = (   0.0825000   0.0825000   0.1650000), wk =   0.0040733
        k(  201) = (   0.0750000   0.0750000   0.1500000), wk =   0.0040733
        k(  202) = (   0.0675000   0.0675000   0.1350000), wk =   0.0040733
        k(  203) = (   0.0600000   0.0600000   0.1200000), wk =   0.0040733
        k(  204) = (   0.0525000   0.0525000   0.1050000), wk =   0.0040733
        k(  205) = (   0.0450000   0.0450000   0.0900000), wk =   0.0040733
        k(  206) = (   0.0375000   0.0375000   0.0750000), wk =   0.0040733
        k(  207) = (   0.0300000   0.0300000   0.0600000), wk =   0.0040733
        k(  208) = (   0.0225000   0.0225000   0.0450000), wk =   0.0040733
        k(  209) = (   0.0150000   0.0150000   0.0300000), wk =   0.0040733
        k(  210) = (   0.0075000   0.0075000   0.0150000), wk =   0.0040733
        k(  211) = (   0.0000000   0.0000000   0.0000000), wk =   0.0040733
        k(  212) = (   0.0083333   0.0083333   0.0083333), wk =   0.0040733
        k(  213) = (   0.0166667   0.0166667   0.0166667), wk =   0.0040733
        k(  214) = (   0.0250000   0.0250000   0.0250000), wk =   0.0040733
        k(  215) = (   0.0333333   0.0333333   0.0333333), wk =   0.0040733
        k(  216) = (   0.0416667   0.0416667   0.0416667), wk =   0.0040733
        k(  217) = (   0.0500000   0.0500000   0.0500000), wk =   0.0040733
        k(  218) = (   0.0583333   0.0583333   0.0583333), wk =   0.0040733
        k(  219) = (   0.0666667   0.0666667   0.0666667), wk =   0.0040733
        k(  220) = (   0.0750000   0.0750000   0.0750000), wk =   0.0040733
        k(  221) = (   0.0833333   0.0833333   0.0833333), wk =   0.0040733
        k(  222) = (   0.0916667   0.0916667   0.0916667), wk =   0.0040733
        k(  223) = (   0.1000000   0.1000000   0.1000000), wk =   0.0040733
        k(  224) = (   0.1083333   0.1083333   0.1083333), wk =   0.0040733
        k(  225) = (   0.1166667   0.1166667   0.1166667), wk =   0.0040733
        k(  226) = (   0.1250000   0.1250000   0.1250000), wk =   0.0040733
        k(  227) = (   0.1333333   0.1333333   0.1333333), wk =   0.0040733
        k(  228) = (   0.1416667   0.1416667   0.1416667), wk =   0.0040733
        k(  229) = (   0.1500000   0.1500000   0.1500000), wk =   0.0040733
        k(  230) = (   0.1583333   0.1583333   0.1583333), wk =   0.0040733
        k(  231) = (   0.1666667   0.1666667   0.1666667), wk =   0.0040733
        k(  232) = (   0.1750000   0.1750000   0.1750000), wk =   0.0040733
        k(  233) = (   0.1833333   0.1833333   0.1833333), wk =   0.0040733
        k(  234) = (   0.1916667   0.1916667   0.1916667), wk =   0.0040733
        k(  235) = (   0.2000000   0.2000000   0.2000000), wk =   0.0040733
        k(  236) = (   0.2083333   0.2083333   0.2083333), wk =   0.0040733
        k(  237) = (   0.2166667   0.2166667   0.2166667), wk =   0.0040733
        k(  238) = (   0.2250000   0.2250000   0.2250000), wk =   0.0040733
        k(  239) = (   0.2333333   0.2333333   0.2333333), wk =   0.0040733
        k(  240) = (   0.2416667   0.2416667   0.2416667), wk =   0.0040733
        k(  241) = (   0.2500000   0.2500000   0.2500000), wk =   0.0040733
        k(  242) = (   0.2583333   0.2583333   0.2583333), wk =   0.0040733
        k(  243) = (   0.2666667   0.2666667   0.2666667), wk =   0.0040733
        k(  244) = (   0.2750000   0.2750000   0.2750000), wk =   0.0040733
        k(  245) = (   0.2833333   0.2833333   0.2833333), wk =   0.0040733
        k(  246) = (   0.2916667   0.2916667   0.2916667), wk =   0.0040733
        k(  247) = (   0.3000000   0.3000000   0.3000000), wk =   0.0040733
        k(  248) = (   0.3083333   0.3083333   0.3083333), wk =   0.0040733
        k(  249) = (   0.3166667   0.3166667   0.3166667), wk =   0.0040733
        k(  250) = (   0.3250000   0.3250000   0.3250000), wk =   0.0040733
        k(  251) = (   0.3333333   0.3333333   0.3333333), wk =   0.0040733
        k(  252) = (   0.3416667   0.3416667   0.3416667), wk =   0.0040733
        k(  253) = (   0.3500000   0.3500000   0.3500000), wk =   0.0040733
        k(  254) = (   0.3583333   0.3583333   0.3583333), wk =   0.0040733
        k(  255) = (   0.3666667   0.3666667   0.3666667), wk =   0.0040733
        k(  256) = (   0.3750000   0.3750000   0.3750000), wk =   0.0040733
        k(  257) = (   0.3833333   0.3833333   0.3833333), wk =   0.0040733
        k(  258) = (   0.3916667   0.3916667   0.3916667), wk =   0.0040733
        k(  259) = (   0.4000000   0.4000000   0.4000000), wk =   0.0040733
        k(  260) = (   0.4083333   0.4083333   0.4083333), wk =   0.0040733
        k(  261) = (   0.4166667   0.4166667   0.4166667), wk =   0.0040733
        k(  262) = (   0.4250000   0.4250000   0.4250000), wk =   0.0040733
        k(  263) = (   0.4333333   0.4333333   0.4333333), wk =   0.0040733
        k(  264) = (   0.4416667   0.4416667   0.4416667), wk =   0.0040733
        k(  265) = (   0.4500000   0.4500000   0.4500000), wk =   0.0040733
        k(  266) = (   0.4583333   0.4583333   0.4583333), wk =   0.0040733
        k(  267) = (   0.4666667   0.4666667   0.4666667), wk =   0.0040733
        k(  268) = (   0.4750000   0.4750000   0.4750000), wk =   0.0040733
        k(  269) = (   0.4833333   0.4833333   0.4833333), wk =   0.0040733
        k(  270) = (   0.4916667   0.4916667   0.4916667), wk =   0.0040733
        k(  271) = (   0.5000000   0.5000000   0.5000000), wk =   0.0040733
        k(  272) = (   0.5020833   0.4958333   0.5020833), wk =   0.0040733
        k(  273) = (   0.5041667   0.4916667   0.5041667), wk =   0.0040733
        k(  274) = (   0.5062500   0.4875000   0.5062500), wk =   0.0040733
        k(  275) = (   0.5083333   0.4833333   0.5083333), wk =   0.0040733
        k(  276) = (   0.5104167   0.4791667   0.5104167), wk =   0.0040733
        k(  277) = (   0.5125000   0.4750000   0.5125000), wk =   0.0040733
        k(  278) = (   0.5145833   0.4708333   0.5145833), wk =   0.0040733
        k(  279) = (   0.5166667   0.4666667   0.5166667), wk =   0.0040733
        k(  280) = (   0.5187500   0.4625000   0.5187500), wk =   0.0040733
        k(  281) = (   0.5208333   0.4583333   0.5208333), wk =   0.0040733
        k(  282) = (   0.5229167   0.4541667   0.5229167), wk =   0.0040733
        k(  283) = (   0.5250000   0.4500000   0.5250000), wk =   0.0040733
        k(  284) = (   0.5270833   0.4458333   0.5270833), wk =   0.0040733
        k(  285) = (   0.5291667   0.4416667   0.5291667), wk =   0.0040733
        k(  286) = (   0.5312500   0.4375000   0.5312500), wk =   0.0040733
        k(  287) = (   0.5333333   0.4333333   0.5333333), wk =   0.0040733
        k(  288) = (   0.5354167   0.4291667   0.5354167), wk =   0.0040733
        k(  289) = (   0.5375000   0.4250000   0.5375000), wk =   0.0040733
        k(  290) = (   0.5395833   0.4208333   0.5395833), wk =   0.0040733
        k(  291) = (   0.5416667   0.4166667   0.5416667), wk =   0.0040733
        k(  292) = (   0.5437500   0.4125000   0.5437500), wk =   0.0040733
        k(  293) = (   0.5458333   0.4083333   0.5458333), wk =   0.0040733
        k(  294) = (   0.5479167   0.4041667   0.5479167), wk =   0.0040733
        k(  295) = (   0.5500000   0.4000000   0.5500000), wk =   0.0040733
        k(  296) = (   0.5520833   0.3958333   0.5520833), wk =   0.0040733
        k(  297) = (   0.5541667   0.3916667   0.5541667), wk =   0.0040733
        k(  298) = (   0.5562500   0.3875000   0.5562500), wk =   0.0040733
        k(  299) = (   0.5583333   0.3833333   0.5583333), wk =   0.0040733
        k(  300) = (   0.5604167   0.3791667   0.5604167), wk =   0.0040733
        k(  301) = (   0.5625000   0.3750000   0.5625000), wk =   0.0040733
        k(  302) = (   0.5645833   0.3708333   0.5645833), wk =   0.0040733
        k(  303) = (   0.5666667   0.3666667   0.5666667), wk =   0.0040733
        k(  304) = (   0.5687500   0.3625000   0.5687500), wk =   0.0040733
        k(  305) = (   0.5708333   0.3583333   0.5708333), wk =   0.0040733
        k(  306) = (   0.5729167   0.3541667   0.5729167), wk =   0.0040733
        k(  307) = (   0.5750000   0.3500000   0.5750000), wk =   0.0040733
        k(  308) = (   0.5770833   0.3458333   0.5770833), wk =   0.0040733
        k(  309) = (   0.5791667   0.3416667   0.5791667), wk =   0.0040733
        k(  310) = (   0.5812500   0.3375000   0.5812500), wk =   0.0040733
        k(  311) = (   0.5833333   0.3333333   0.5833333), wk =   0.0040733
        k(  312) = (   0.5854167   0.3291667   0.5854167), wk =   0.0040733
        k(  313) = (   0.5875000   0.3250000   0.5875000), wk =   0.0040733
        k(  314) = (   0.5895833   0.3208333   0.5895833), wk =   0.0040733
        k(  315) = (   0.5916667   0.3166667   0.5916667), wk =   0.0040733
        k(  316) = (   0.5937500   0.3125000   0.5937500), wk =   0.0040733
        k(  317) = (   0.5958333   0.3083333   0.5958333), wk =   0.0040733
        k(  318) = (   0.5979167   0.3041667   0.5979167), wk =   0.0040733
        k(  319) = (   0.6000000   0.3000000   0.6000000), wk =   0.0040733
        k(  320) = (   0.6020833   0.2958333   0.6020833), wk =   0.0040733
        k(  321) = (   0.6041667   0.2916667   0.6041667), wk =   0.0040733
        k(  322) = (   0.6062500   0.2875000   0.6062500), wk =   0.0040733
        k(  323) = (   0.6083333   0.2833333   0.6083333), wk =   0.0040733
        k(  324) = (   0.6104167   0.2791667   0.6104167), wk =   0.0040733
        k(  325) = (   0.6125000   0.2750000   0.6125000), wk =   0.0040733
        k(  326) = (   0.6145833   0.2708333   0.6145833), wk =   0.0040733
        k(  327) = (   0.6166667   0.2666667   0.6166667), wk =   0.0040733
        k(  328) = (   0.6187500   0.2625000   0.6187500), wk =   0.0040733
        k(  329) = (   0.6208333   0.2583333   0.6208333), wk =   0.0040733
        k(  330) = (   0.6229167   0.2541667   0.6229167), wk =   0.0040733
        k(  331) = (   0.6250000   0.2500000   0.6250000), wk =   0.0040733
        k(  332) = (   0.6225000   0.2500000   0.6275000), wk =   0.0040733
        k(  333) = (   0.6200000   0.2500000   0.6300000), wk =   0.0040733
        k(  334) = (   0.6175000   0.2500000   0.6325000), wk =   0.0040733
        k(  335) = (   0.6150000   0.2500000   0.6350000), wk =   0.0040733
        k(  336) = (   0.6125000   0.2500000   0.6375000), wk =   0.0040733
        k(  337) = (   0.6100000   0.2500000   0.6400000), wk =   0.0040733
        k(  338) = (   0.6075000   0.2500000   0.6425000), wk =   0.0040733
        k(  339) = (   0.6050000   0.2500000   0.6450000), wk =   0.0040733
        k(  340) = (   0.6025000   0.2500000   0.6475000), wk =   0.0040733
        k(  341) = (   0.6000000   0.2500000   0.6500000), wk =   0.0040733
        k(  342) = (   0.5975000   0.2500000   0.6525000), wk =   0.0040733
        k(  343) = (   0.5950000   0.2500000   0.6550000), wk =   0.0040733
        k(  344) = (   0.5925000   0.2500000   0.6575000), wk =   0.0040733
        k(  345) = (   0.5900000   0.2500000   0.6600000), wk =   0.0040733
        k(  346) = (   0.5875000   0.2500000   0.6625000), wk =   0.0040733
        k(  347) = (   0.5850000   0.2500000   0.6650000), wk =   0.0040733
        k(  348) = (   0.5825000   0.2500000   0.6675000), wk =   0.0040733
        k(  349) = (   0.5800000   0.2500000   0.6700000), wk =   0.0040733
        k(  350) = (   0.5775000   0.2500000   0.6725000), wk =   0.0040733
        k(  351) = (   0.5750000   0.2500000   0.6750000), wk =   0.0040733
        k(  352) = (   0.5725000   0.2500000   0.6775000), wk =   0.0040733
        k(  353) = (   0.5700000   0.2500000   0.6800000), wk =   0.0040733
        k(  354) = (   0.5675000   0.2500000   0.6825000), wk =   0.0040733
        k(  355) = (   0.5650000   0.2500000   0.6850000), wk =   0.0040733
        k(  356) = (   0.5625000   0.2500000   0.6875000), wk =   0.0040733
        k(  357) = (   0.5600000   0.2500000   0.6900000), wk =   0.0040733
        k(  358) = (   0.5575000   0.2500000   0.6925000), wk =   0.0040733
        k(  359) = (   0.5550000   0.2500000   0.6950000), wk =   0.0040733
        k(  360) = (   0.5525000   0.2500000   0.6975000), wk =   0.0040733
        k(  361) = (   0.5500000   0.2500000   0.7000000), wk =   0.0040733
        k(  362) = (   0.5475000   0.2500000   0.7025000), wk =   0.0040733
[...]
    30.5079  31.7849  32.0800  32.2213  33.0528  34.5390  34.7165  36.3174

          k =-0.5542 0.5542 0.3917 (  4378 PWs)   bands (ev):

    -5.1839  -1.6820   3.1117   3.6318   6.1591   8.6570   9.0627  11.9528
    14.0948  14.8499  15.1759  16.5289  17.1403  17.7481  22.1343  23.7691
    24.2498  24.6221  25.7548  25.9604  28.1157  28.1574  28.7540  29.0824
    30.5142  31.8414  31.9167  32.0572  33.2283  34.5545  34.7224  36.4198

          k =-0.5583 0.5583 0.3833 (  4372 PWs)   bands (ev):

    -5.1749  -1.6789   3.0367   3.6146   6.2267   8.6438   9.1015  11.9975
    14.0101  14.8075  15.1327  16.5885  17.2017  17.8734  22.1119  23.7084
    24.2056  24.6282  25.7820  26.0280  27.9770  28.1113  28.7613  29.0521
    30.5202  31.7458  31.8106  31.9779  33.4111  34.5728  34.7270  36.5262

          k =-0.5625 0.5625 0.3750 (  4370 PWs)   bands (ev):

    -5.1653  -1.6757   2.9608   3.5964   6.2932   8.6328   9.1428  12.0407
    13.9270  14.7681  15.0892  16.6488  17.2648  18.0004  22.0869  23.6489
    24.1620  24.6356  25.8063  26.0962  27.7982  28.0847  28.7565  29.0632
    30.5255  31.5727  31.6588  32.0171  33.5952  34.5954  34.7301  36.6352

          k =-0.5667 0.5667 0.3667 (  4366 PWs)   bands (ev):

    -5.1551  -1.6725   2.8842   3.5774   6.3580   8.6246   9.1866  12.0812
    13.8468  14.7321  15.0456  16.7096  17.3292  18.1290  22.0592  23.5912
    24.1192  24.6443  25.8276  26.1642  27.6214  28.0325  28.7560  29.1024
    30.5293  31.4001  31.4888  32.0729  33.7764  34.6243  34.7313  36.7409

          k =-0.5708 0.5708 0.3583 (  4364 PWs)   bands (ev):

    -5.1443  -1.6691   2.8074   3.5576   6.4205   8.6197   9.2328  12.1175
    13.7705  14.6995  15.0021  16.7708  17.3949  18.2589  22.0287  23.5357
    24.0772  24.6540  25.8459  26.2312  27.4474  27.9568  28.7701  29.1571
    30.5296  31.2310  31.3171  32.1293  33.9500  34.6634  34.7299  36.8074

          k =-0.5750 0.5750 0.3500 (  4366 PWs)   bands (ev):

    -5.1328  -1.6658   2.7305   3.5371   6.4800   8.6188   9.2813  12.1482
    13.6994  14.6709  14.9587  16.8324  17.4617  18.3899  21.9952  23.4827
    24.0360  24.6646  25.8609  26.2957  27.2778  27.8632  28.7993  29.2207
    30.5228  31.0695  31.1467  32.1842  34.1089  34.7193  34.7253  36.7166

          k =-0.5792 0.5792 0.3417 (  4362 PWs)   bands (ev):

    -5.1207  -1.6624   2.6538   3.5158   6.5361   8.6223   9.3319  12.1716
    13.6347  14.6468  14.9156  16.8941  17.5296  18.5219  21.9586  23.4325
    23.9958  24.6762  25.8726  26.3542  27.1160  27.7582  28.8404  29.2892
    30.5000  30.9248  30.9790  32.2371  34.2433  34.7160  34.8014  36.5400

          k =-0.5833 0.5833 0.3333 (  4356 PWs)   bands (ev):

    -5.1081  -1.6591   2.5774   3.4940   6.5880   8.6309   9.3848  12.1860
    13.5773  14.6277  14.8728  16.9560  17.5984  18.6546  21.9190  23.3853
    23.9566  24.6886  25.8808  26.3984  26.9702  27.6466  28.8902  29.3600
    30.4440  30.8145  30.8158  32.2880  34.3459  34.7005  34.9169  36.3525

          k =-0.5875 0.5875 0.3250 (  4358 PWs)   bands (ev):

    -5.0948  -1.6559   2.5014   3.4715   6.6354   8.6451   9.4397  12.1899
    13.5282  14.6143  14.8304  17.0180  17.6680  18.7881  21.8763  23.3413
    23.9184  24.7017  25.8852  26.4082  26.8603  27.5320  28.9462  29.4297
    30.3408  30.6596  30.7525  32.3370  34.4181  34.6761  35.0641  36.1687

          k =-0.5917 0.5917 0.3167 (  4360 PWs)   bands (ev):

    -5.0810  -1.6527   2.4261   3.4486   6.6778   8.6652   9.4967  12.1822
    13.4876  14.6074  14.7885  17.0799  17.7383  18.9222  21.8306  23.3006
    23.8813  24.7154  25.8853  26.3545  26.8157  27.4173  29.0069  29.4936
    30.2017  30.5148  30.7279  32.3842  34.4688  34.6395  35.2340  35.9953

          k =-0.5958 0.5958 0.3083 (  4358 PWs)   bands (ev):

    -5.0667  -1.6497   2.3516   3.4252   6.7148   8.6915   9.5556  12.1625
    13.4552  14.6078  14.7471  17.1417  17.8094  19.0567  21.7820  23.2630
    23.8454  24.7296  25.8805  26.2401  26.8331  27.3047  29.0709  29.5429
    30.0449  30.3900  30.7226  32.4299  34.5065  34.5864  35.4182  35.8380

          k =-0.6000 0.6000 0.3000 (  4358 PWs)   bands (ev):

    -5.0517  -1.6469   2.2781   3.4014   6.7464   8.7244   9.6163  12.1309
    13.4301  14.6163  14.7063  17.2032  17.8811  19.1916  21.7308  23.2286
    23.8105  24.7442  25.8701  26.0949  26.8828  27.1962  29.1372  29.5634
    29.8804  30.2992  30.7266  32.4740  34.5123  34.5365  35.6109  35.7020

          k =-0.6042 0.6042 0.2917 (  4359 PWs)   bands (ev):

    -5.0363  -1.6444   2.2056   3.3773   6.7724   8.7637   9.6789  12.0883
    13.4106  14.6335  14.6661  17.2644  17.9533  19.3267  21.6769  23.1972
    23.7768  24.7591  25.8533  25.9369  26.9466  27.0936  29.2044  29.5397
    29.7128  30.2586  30.7355  32.5168  34.4137  34.5619  35.5913  35.8089

          k =-0.6083 0.6083 0.2833 (  4361 PWs)   bands (ev):

    -5.0203  -1.6421   2.1343   3.3529   6.7929   8.8094   9.7432  12.0360
    13.3950  14.6266  14.6599  17.3251  18.0261  19.4620  21.6209  23.1687
    23.7444  24.7740  25.7735  25.8290  26.9990  27.0170  29.2679  29.4721
    29.5440  30.2719  30.7476  32.5583  34.2900  34.5845  35.5067  36.0104

          k =-0.6125 0.6125 0.2750 (  4367 PWs)   bands (ev):

    -5.0038  -1.6402   2.0644   3.3283   6.8081   8.8614   9.8091  11.9755
    13.3814  14.5879  14.6960  17.3853  18.0992  19.5973  21.5628  23.1427
    23.7132  24.7886  25.6076  25.7966  26.9138  27.0907  29.2897  29.3755
    29.4116  30.3255  30.7617  32.5986  34.1438  34.6052  35.4461  36.2141

          k =-0.6167 0.6167 0.2667 (  4367 PWs)   bands (ev):

    -4.9868  -1.6387   1.9958   3.3035   6.8183   8.9192   9.8767  11.9082
    13.3684  14.5499  14.7417  17.4448  18.1727  19.7325  21.5030  23.1190
    23.6832  24.8027  25.4407  25.7556  26.8395  27.1659  29.1914  29.2081
    29.4517  30.4038  30.7773  32.6373  33.9799  34.6247  35.4054  36.4188

          k =-0.6208 0.6208 0.2583 (  4371 PWs)   bands (ev):

    -4.9693  -1.6376   1.9289   3.2786   6.8240   8.9825   9.9457  11.8356
    13.3547  14.5127  14.7968  17.5036  18.2466  19.8673  21.4419  23.0974
    23.6545  24.8156  25.2736  25.7062  26.7770  27.2413  29.0428  29.0531
    29.5223  30.4967  30.7940  32.6742  33.8034  34.6433  35.3800  36.6234

          k =-0.6250 0.6250 0.2500 (  4368 PWs)   bands (ev):

    -4.9514  -1.6370   1.8636   3.2536   6.8254   9.0508  10.0162  11.7589
    13.3397  14.4764  14.8609  17.5615  18.3206  20.0018  21.3798  23.0773
    23.6270  24.8267  25.1068  25.6496  26.7261  27.3157  28.8806  28.9046
    29.5986  30.5986  30.8118  32.7081  33.6198  34.6612  35.3661  36.8262

          k =-0.6292 0.6292 0.2417 (  4373 PWs)   bands (ev):

    -4.9331  -1.6370   1.8001   3.2285   6.8232   9.1236  10.0881  11.6791
    13.3228  14.4410  14.9334  17.6183  18.3949  20.1355  21.3170  23.0586
    23.6008  24.8348  24.9405  25.5878  26.6865  27.3871  28.7231  28.7520
    29.6777  30.7062  30.8304  32.7363  33.4350  34.6786  35.3607  37.0233

          k =-0.6333 0.6333 0.2333 (  4375 PWs)   bands (ev):

    -4.9144  -1.6376   1.7386   3.2035   6.8176   9.2003  10.1612  11.5970
    13.3040  14.4065  15.0137  17.6741  18.4693  20.2681  21.2542  23.0407
    23.5758  24.7750  24.8385  25.5241  26.6569  27.4528  28.5733  28.5977
    29.7587  30.8176  30.8497  32.7510  33.2594  34.6954  35.3616  37.2047

          k =-0.6375 0.6375 0.2250 (  4371 PWs)   bands (ev):

    -4.8952  -1.6389   1.6790   3.1785   6.8092   9.2804  10.2356  11.5135
    13.2832  14.3730  15.1010  17.7285  18.5437  20.3989  21.1921  23.0231
    23.5519  24.6107  24.8359  25.4622  26.6359  27.5077  28.4361  28.4431
    29.8413  30.8697  30.9311  32.7298  33.1174  34.7118  35.3674  37.3396

          k =-0.6417 0.6417 0.2167 (  4371 PWs)   bands (ev):

    -4.8758  -1.6408   1.6216   3.1536   6.7983   9.3633  10.3111  11.4293
    13.2607  14.3405  15.1947  17.7815  18.6181  20.5266  21.1321  23.0054
    23.5289  24.4477  24.8244  25.4066  26.6222  27.5425  28.2891  28.3207
    29.9254  30.8903  31.0457  32.6362  33.0471  34.7277  35.3771  37.3812

          k =-0.6458 0.6458 0.2083 (  4371 PWs)   bands (ev):

    -4.8560  -1.6436   1.5664   3.1288   6.7853   9.4484  10.3876  11.3450
    13.2367  14.3091  15.2940  17.8330  18.6925  20.6478  21.0777  22.9870
    23.5064  24.2867  24.8019  25.3612  26.6145  27.5433  28.1365  28.2412
    30.0108  30.9113  31.1598  32.4786  33.0420  34.7430  35.3897  37.3505

          k =-0.6500 0.6500 0.2000 (  4367 PWs)   bands (ev):

    -4.8359  -1.6471   1.5135   3.1041   6.7706   9.5349  10.4651  11.2612
    13.2113  14.2788  15.3985  17.8828  18.7667  20.7518  21.0397  22.9673
    23.4838  24.1284  24.7674  25.3287  26.6116  27.4977  27.9858  28.2097
    30.0975  30.9329  31.2716  32.2946  33.0668  34.7577  35.4048  37.2934

          k =-0.6542 0.6542 0.1917 (  4368 PWs)   bands (ev):

    -4.8156  -1.6515   1.4630   3.0797   6.7544   9.6220  10.5434  11.1789
    13.1848  14.2497  15.5074  17.9307  18.8406  20.8060  21.0507  22.9456
    23.4595  23.9745  24.7221  25.3094  26.6124  27.4081  27.8378  28.2241
    30.1854  30.9548  31.3767  32.1054  33.1047  34.7716  35.4220  37.2281

          k =-0.6583 0.6583 0.1833 (  4366 PWs)   bands (ev):

    -4.7951  -1.6568   1.4151   3.0555   6.7371   9.7087  10.6226  11.0989
    13.1574  14.2219  15.6204  17.9765  18.9142  20.7917  21.1293  22.9211
    23.4299  23.8285  24.6693  25.3015  26.6162  27.2884  27.6931  28.2701
    30.2743  30.9772  31.4621  31.9297  33.1502  34.7848  35.4408  37.1609

          k =-0.6625 0.6625 0.1750 (  4362 PWs)   bands (ev):

    -4.7744  -1.6630   1.3698   3.0315   6.7188   9.7936  10.7024  11.0226
    13.1294  14.1954  15.7370  18.0202  18.9874  20.7458  21.2386  22.8932
    23.3870  23.6988  24.6127  25.3023  26.6219  27.1516  27.5528  28.3352
    30.3640  30.9998  31.4778  31.8199  33.2013  34.7971  35.4611  37.0940

          k =-0.6667 0.6667 0.1667 (  4358 PWs)   bands (ev):

    -4.7535  -1.6702   1.3271   3.0079   6.6999   9.8747  10.7828  10.9520
    13.1010  14.1703  15.8568  18.0615  19.0602  20.6905  21.3564  22.8613
    23.3155  23.6006  24.5559  25.3090  26.6285  27.0052  27.4181  28.4115
    30.4542  31.0228  31.3630  31.8377  33.2578  34.8083  35.4826  37.0289

          k =-0.6708 0.6708 0.1583 (  4358 PWs)   bands (ev):

    -4.7326  -1.6783   1.2873   2.9845   6.6804   9.9487  10.8636  10.8900
    13.0722  14.1468  15.9794  18.1003  19.1323  20.6320  21.4760  22.8248
    23.2073  23.5422  24.5019  25.3192  26.6347  26.8535  27.2909  28.4948
    30.5434  31.0460  31.1849  31.9169  33.3195  34.8183  35.5052  36.9663

          k =-0.6750 0.6750 0.1500 (  4354 PWs)   bands (ev):

    -4.7116  -1.6873   1.2502   2.9615   6.6606  10.0114  10.8411  10.9447
    13.0434  14.1248  16.1045  18.1365  19.2037  20.5728  21.5949  22.7836
    23.0747  23.5114  24.4528  25.3311  26.6380  26.6988  27.1743  28.5828
    30.6266  30.9965  31.0693  32.0096  33.3870  34.8269  35.5285  36.9066

          k =-0.6792 0.6792 0.1417 (  4354 PWs)   bands (ev):

    -4.6907  -1.6973   1.2160   2.9389   6.6405  10.0565  10.8112  11.0260
    13.0146  14.1045  16.2317  18.1698  19.2743  20.5136  21.7115  22.7379
    22.9310  23.4950  24.4100  25.3429  26.5425  26.6350  27.0729  28.6742
    30.6619  30.8513  31.0928  32.1034  33.4606  34.8340  35.5526  36.8502

          k =-0.6833 0.6833 0.1333 (  4352 PWs)   bands (ev):

    -4.6699  -1.7082   1.1847   2.9167   6.6204  10.0780  10.8064  11.1074
    12.9860  14.0860  16.3608  18.2001  19.3440  20.4550  21.8243  22.6886
    22.7827  23.4866  24.3742  25.3528  26.3853  26.6199  26.9937  28.7682
    30.5284  30.8740  31.1164  32.1942  33.5408  34.8395  35.5772  36.7976

          k =-0.6875 0.6875 0.1250 (  4356 PWs)   bands (ev):

    -4.6492  -1.7199   1.1563   2.8948   6.6003  10.0731  10.8292  11.1886
    12.9578  14.0695  16.4913  18.2274  19.4125  20.3974  21.9309  22.6327
    22.6379  23.4835  24.3456  25.3591  26.2278  26.5882  26.9431  28.8643
    30.3329  30.9591  31.1400  32.2803  33.6279  34.8432  35.6022  36.7489

          k =-0.6917 0.6917 0.1167 (  4354 PWs)   bands (ev):

    -4.6287  -1.7324   1.1309   2.8735   6.5803  10.0443  10.8771  11.2694
    12.9302  14.0551  16.6229  18.2515  19.4799  20.3409  22.0271  22.4823
    22.5905  23.4845  24.3237  25.3600  26.0704  26.5421  26.9208  28.9620
    30.1288  31.0540  31.1636  32.3606  33.7221  34.8449  35.6272  36.7045

          k =-0.6958 0.6958 0.1083 (  4353 PWs)   bands (ev):

    -4.6086  -1.7456   1.1084   2.8525   6.5606   9.9975  10.9440  11.3498
    12.9032  14.0430  16.7552  18.2725  19.5458  20.2856  22.1038  22.3323
    22.5559  23.4890  24.3075  25.3540  25.9132  26.4913  26.9195  29.0613
    29.9227  31.1525  31.1871  32.4346  33.8234  34.8446  35.6522  36.6645

          k =-0.7000 0.7000 0.1000 (  4355 PWs)   bands (ev):

    -4.5888  -1.7595   1.0889   2.8321   6.5411   9.9385  11.0239  11.4294
    12.8772  14.0334  16.8877  18.2904  19.6102  20.2317  22.1452  22.1830
    22.5507  23.4967  24.2956  25.3400  25.7565  26.4453  26.9315  29.1619
    29.7165  31.2104  31.2531  32.5022  33.9316  34.8422  35.6767  36.6273

          k =-0.7042 0.7042 0.0917 (  4355 PWs)   bands (ev):

    -4.5695  -1.7738   1.0723   2.8122   6.5220   9.8717  11.1122  11.5080
    12.8523  14.0265  17.0198  18.3054  19.6727  20.1793  22.0349  22.1402
    22.5868  23.5075  24.2859  25.3179  25.6004  26.4105  26.9518  29.2636
    29.5109  31.2336  31.3554  32.5634  34.0463  34.8376  35.7004  36.5651

          k =-0.7083 0.7083 0.0833 (  4356 PWs)   bands (ev):

    -4.5507  -1.7886   1.0586   2.7928   6.5032   9.7999  11.2058  11.5853
    12.8289  14.0225  17.1507  18.3177  19.7332  20.1284  21.8884  22.0986
    22.6552  23.5212  24.2761  25.2892  25.4452  26.3897  26.9779  29.3064
    29.3664  31.2565  31.4591  32.6184  34.1669  34.8308  35.7228  36.5065

          k =-0.7125 0.7125 0.0750 (  4356 PWs)   bands (ev):

    -4.5326  -1.8036   1.0478   2.7739   6.4850   9.7249  11.3025  11.6611
    12.8073  14.0217  17.2795  18.3278  19.7912  20.0792  21.7436  22.0372
    22.7404  23.5377  24.2633  25.2569  25.2909  26.3834  27.0083  29.1033
    29.4701  31.2790  31.5641  32.6674  34.2927  34.8220  35.7432  36.4520

          k =-0.7167 0.7167 0.0667 (  4356 PWs)   bands (ev):

    -4.5152  -1.8187   1.0397   2.7556   6.4672   9.6481  11.4006  11.7350
    12.7881  14.0244  17.4045  18.3367  19.8464  20.0319  21.6012  21.9661
    22.8328  23.5569  24.2444  25.1378  25.2251  26.3905  27.0423  28.9021
    29.5748  31.3012  31.6703  32.7110  34.4230  34.8113  35.7608  36.4021

          k =-0.7208 0.7208 0.0583 (  4351 PWs)   bands (ev):

    -4.4987  -1.8337   1.0344   2.7378   6.4500   9.5700  11.4986  11.8068
    12.7718  14.0309  17.5240  18.3455  19.8981  19.9869  21.4616  21.8908
    22.9280  23.5786  24.2165  24.9861  25.1981  26.4090  27.0796  28.7032
    29.6802  31.3230  31.7776  32.7493  34.5568  34.7987  35.7744  36.3576

          k =-0.7250 0.7250 0.0500 (  4356 PWs)   bands (ev):

    -4.4832  -1.8484   1.0317   2.7206   6.4334   9.4914  11.5952  11.8760
    12.7593  14.0414  17.6350  18.3563  19.9446  19.9455  21.3256  21.8141
    23.0239  23.6026  24.1775  24.8363  25.1797  26.4367  27.1198  28.5073
    29.7863  31.3442  31.8859  32.7826  34.6932  34.7846  35.7830  36.3185

          k =-0.7292 0.7292 0.0417 (  4356 PWs)   bands (ev):

    -4.4687  -1.8627   1.0317   2.7041   6.4174   9.4125  11.6888  11.9423
    12.7518  14.0564  17.7335  18.3718  19.9058  19.9874  21.1946  21.7377
    23.1192  23.6283  24.1267  24.6888  25.1719  26.4715  27.1630  28.3152
    29.8930  31.3649  31.9953  32.8111  34.7692  34.8306  35.7853  36.2838

          k =-0.7333 0.7333 0.0333 (  4357 PWs)   bands (ev):

    -4.4554  -1.8764   1.0341   2.6881   6.4020   9.3337  11.7777  12.0054
    12.7508  14.0761  17.8148  18.3955  19.8717  20.0220  21.0702  21.6628
    23.2129  23.6547  24.0648  24.5448  25.1753  26.5109  27.2089  28.1283
    30.0003  31.3851  32.1055  32.8351  34.7528  34.9670  35.7805  36.2489

          k =-0.7375 0.7375 0.0250 (  4357 PWs)   bands (ev):

    -4.4435  -1.8892   1.0390   2.6727   6.3873   9.2552  11.8596  12.0650
    12.7583  14.1007  17.8743  18.4295  19.8441  20.0463  20.9554  21.5904
    23.3036  23.6797  23.9946  24.4063  25.1887  26.5524  27.2572  27.9487
    30.1079  31.4047  32.2165  32.8546  34.7358  35.0987  35.7679  36.2011

          k =-0.7417 0.7417 0.0167 (  4357 PWs)   bands (ev):

    -4.4330  -1.9010   1.0462   2.6580   6.3733   9.1770  11.9321  12.1207
    12.7765  14.1307  17.9104  18.4732  19.8253  20.0562  20.8543  21.5210
    23.3885  23.6993  23.9209  24.2775  25.2102  26.5928  27.3060  27.7810
    30.2158  31.4238  32.3280  32.8699  34.7185  35.2182  35.7477  36.1258

          k =-0.7458 0.7458 0.0083 (  4354 PWs)   bands (ev):

    -4.4240  -1.9115   1.0556   2.6440   6.3599   9.0995  11.9930  12.1723
    12.8075  14.1662  17.9249  18.5212  19.8185  20.0464  20.7723  21.4552
    23.4601  23.7042  23.8532  24.1677  25.2375  26.6274  27.3487  27.6366
    30.3236  31.4424  32.4394  32.8812  34.7013  35.3080  35.7216  36.0425

          k =-0.7500 0.7500 0.0000 (  4354 PWs)   bands (ev):

    -4.4167  -1.9206   1.0673   2.6306   6.3473   9.0225  12.0407  12.2196
    12.8528  14.2073  17.9220  18.5657  19.8269  20.0121  20.7141  21.3932
    23.4989  23.6780  23.8134  24.0933  25.2679  26.6490  27.3555  27.5528
    30.4311  31.4608  32.5498  32.8893  34.6844  35.3338  35.6984  35.9993

     Writing all to output data dir ./work/GaSb.save/
 
     init_run     :      0.09s CPU      0.14s WALL (       1 calls)
     electrons    :    160.98s CPU    168.63s WALL (       1 calls)

     Called by init_run:
     wfcinit      :      0.00s CPU      0.00s WALL (       1 calls)
     wfcinit:atom :      0.06s CPU      0.07s WALL (     491 calls)
     wfcinit:wfcr :      5.83s CPU      6.39s WALL (     491 calls)
     potinit      :      0.00s CPU      0.00s WALL (       1 calls)
     hinit0       :      0.05s CPU      0.09s WALL (       1 calls)

     Called by electrons:
     c_bands      :    160.97s CPU    168.62s WALL (       1 calls)
     v_of_rho     :      0.00s CPU      0.00s WALL (       1 calls)
     v_h          :      0.00s CPU      0.00s WALL (       1 calls)
     v_xc         :      0.00s CPU      0.00s WALL (       1 calls)

     Called by c_bands:
     init_us_2    :      0.10s CPU      0.11s WALL (     491 calls)
     init_us_2:cp :      0.09s CPU      0.11s WALL (     491 calls)
     cegterg      :    153.59s CPU    160.56s WALL (    1079 calls)

     Called by sum_band:

     Called by *egterg:
     cdiaghg      :     32.14s CPU     32.96s WALL (   17769 calls)
     cegterg:over :      8.59s CPU      8.99s WALL (   17278 calls)
     cegterg:upda :      3.87s CPU      3.94s WALL (   17278 calls)
     cegterg:last :      5.97s CPU      6.03s WALL (    8974 calls)
     h_psi        :    104.91s CPU    111.03s WALL (   18848 calls)
     g_psi        :      0.50s CPU      0.51s WALL (   17278 calls)

     Called by h_psi:
     h_psi:calbec :      3.60s CPU      3.80s WALL (   18848 calls)
     vloc_psi     :     98.68s CPU    104.47s WALL (   18848 calls)
     add_vuspsi   :      2.10s CPU      2.22s WALL (   18848 calls)

     General routines
     calbec       :      3.53s CPU      3.73s WALL (   18848 calls)
     fft          :      0.01s CPU      0.05s WALL (       3 calls)
     fftw         :     91.19s CPU     96.59s WALL (  594632 calls)
     davcio       :      0.22s CPU      0.26s WALL (     982 calls)
 
     Parallel routines
 
     PWSCF        :   2m43.30s CPU   2m52.81s WALL

 
   This run was terminated on:  14: 1:14  23Feb2023            

=------------------------------------------------------------------------------=
   JOB DONE.
=------------------------------------------------------------------------------=
