
     Program BANDS v.7.1 starts on 23Feb2023 at 14: 1:17 

     This program is part of the open-source Quantum ESPRESSO suite
     for quantum simulation of materials; please cite
         "P. Giannozzi et al., J. Phys.:Condens. Matter 21 395502 (2009);
         "P. Giannozzi et al., J. Phys.:Condens. Matter 29 465901 (2017);
         "P. Giannozzi et al., J. Chem. Phys. 152 154105 (2020);
          URL http://www.quantum-espresso.org", 
     in publications or presentations arising from this work. More details at
     http://www.quantum-espresso.org/quote

     Parallel version (MPI), running on    16 processors

     MPI processes distributed on     1 nodes
     R & G space division:  proc/nbgrp/npool/nimage =      16
     56303 MiB available memory on the printing compute node when the environment starts
 

     Reading xml data from directory:

     ./work/GaSb.save/

     IMPORTANT: XC functional enforced from input :
     Exchange-correlation= PZ
                           (   1   1   0   0   0   0   0)
     Any further DFT definition will be discarded
     Please, verify this is what you really want

 
     Parallelization info
     --------------------
     sticks:   dense  smooth     PW     G-vecs:    dense   smooth      PW
     Min          87      87     24                 2169     2169     325
     Max          88      88     25                 2173     2173     327
     Sum        1405    1405    397                34717    34717    5209
 
     Using Slab Decomposition
 
     Reading collected, re-writing distributed wavefunctions
     high-symmetry point:  0.0000 0.0000 0.0000   x coordinate   0.0000
     high-symmetry point: -1.0000 0.0000 0.0000   x coordinate   1.0000
     high-symmetry point: -1.0000 0.5000 0.0000   x coordinate   1.5000
     high-symmetry point: -0.7500 0.7500 0.0000   x coordinate   1.8536
     high-symmetry point:  0.0000 0.0000 0.0000   x coordinate   2.9142
     high-symmetry point: -0.5000 0.5000 0.5000   x coordinate   3.7802
     high-symmetry point: -1.0000 0.2500 0.2500   x coordinate   4.3926
     high-symmetry point: -1.0000 0.5000 0.0000   x coordinate   4.7462
     high-symmetry point: -0.5000 0.5000 0.5000   x coordinate   5.4533
     high-symmetry point: -0.7500 0.7500 0.0000   x coordinate   6.0656

     Plottable bands (eV) written to file GaSb.bands.gnu
     Bands written to file GaSb.bands

 **************************************************************************

                    xk=(   0.00000,   0.00000,   0.00000  )

     point group T_d (-43m) 
     there are  5 classes
     the character table:

       E     8C3   3C2   6S4   6s_d 
A_1    1.00  1.00  1.00  1.00  1.00
A_2    1.00  1.00  1.00 -1.00 -1.00
E      2.00 -1.00  2.00  0.00  0.00
T_1    3.00  0.00 -1.00  1.00 -1.00
T_2    3.00  0.00 -1.00 -1.00  1.00

     the symmetry operations in each class and the name of the first element:

     E        1
                                                                 
     8C3      5    7    8    6   12    9   10   11
                                                                 
     3C2      2    3    4
                                                                 
     6S4     15   16   20   19   23   24
                                                                 
     6s_d    13   14   17   18   21   22
                                                                 

     Band symmetry, T_d (-43m)  point group:

     e(  1 -  1) =     -6.95433  eV     1   --> A_1  G_1  P_1  
     e(  2 -  4) =      4.96735  eV     3   --> T_2  G_15 P_4  
     e(  5 -  5) =      5.52113  eV     1   --> A_1  G_1  P_1  
     e(  6 -  8) =      7.85030  eV     3   --> T_2  G_15 P_4  
     e(  9 -  9) =     10.95563  eV     1   --> A_1  G_1  P_1  
     e( 10 - 11) =     13.96776  eV     2   --> E    G_12 P_3  
     e( 12 - 14) =     14.89829  eV     3   --> T_2  G_15 P_4  
     e( 15 - 15) =     17.47997  eV     1   --> A_1  G_1  P_1  
     e( 16 - 18) =     28.50393  eV     3   --> T_2  G_15 P_4  
     e( 19 - 21) =     28.87365  eV     3   --> T_2  G_15 P_4  
     e( 22 - 24) =     28.99967  eV     3   --> T_1  G_25 P_5  
     e( 25 - 26) =     29.73197  eV     2   --> E    G_12 P_3  
     e( 27 - 27) =     36.20977  eV     1   --> A_1  G_1  P_1  
     e( 28 - 30) =     39.96131  eV     3   --> T_2  G_15 P_4  
     e( 31 - 32) =     40.78294  eV     2   -->   ?

 **************************************************************************

 **************************************************************************

                    xk=(  -0.01667,   0.00000,   0.00000  )

     point group C_2v (mm2) 
     there are  4 classes
     the character table:

       E     C2    s_v   s_v' 
A_1    1.00  1.00  1.00  1.00
A_2    1.00  1.00 -1.00 -1.00
B_1    1.00 -1.00  1.00 -1.00
B_2    1.00 -1.00 -1.00  1.00

     the symmetry operations in each class and the name of the first element:

     E        1
                                                                 
     C2       2
                                                                 
     s_v      3
                                                                 
     s_v'     4
                                                                 

     Band symmetry, C_2v (mm2)  point group:

     e(  1 -  1) =     -6.95334  eV     1   --> A_1  D_1  S_1  
     e(  2 -  2) =      4.92979  eV     1   --> A_1  D_1  S_1  
     e(  3 -  4) =      4.96276  eV     2   --> B_1  D_3  S_3  
     e(  3 -  4) =      4.96276  eV     2   --> B_2  D_4  S_4  
     e(  5 -  5) =      5.55796  eV     1   --> A_1  D_1  S_1  
     e(  6 -  6) =      7.84665  eV     1   --> A_1  D_1  S_1  
     e(  7 -  8) =      7.85625  eV     2   --> B_1  D_3  S_3  
     e(  7 -  8) =      7.85625  eV     2   --> B_2  D_4  S_4  
     e(  9 -  9) =     10.96211  eV     1   --> A_1  D_1  S_1  
     e( 10 - 10) =     13.93592  eV     1   --> A_1  D_1  S_1  
     e( 11 - 11) =     13.96881  eV     1   --> A_2  D_2  S_2  
     e( 12 - 13) =     14.90040  eV     2   --> B_1  D_3  S_3  
     e( 12 - 13) =     14.90040  eV     2   --> B_2  D_4  S_4  
     e( 14 - 14) =     14.92559  eV     1   --> A_1  D_1  S_1  
     e( 15 - 15) =     17.49030  eV     1   --> A_1  D_1  S_1  
     e( 16 - 17) =     28.40877  eV     2   --> B_1  D_3  S_3  
     e( 16 - 17) =     28.40877  eV     2   --> B_2  D_4  S_4  
     e( 18 - 18) =     28.47805  eV     1   --> A_1  D_1  S_1  
     e( 19 - 20) =     28.82140  eV     2   --> B_1  D_3  S_3  
     e( 19 - 20) =     28.82140  eV     2   --> B_2  D_4  S_4  
     e( 21 - 21) =     28.87383  eV     1   --> A_1  D_1  S_1  
     e( 22 - 22) =     28.91902  eV     1   --> A_2  D_2  S_2  
     e( 23 - 24) =     29.14989  eV     2   --> B_1  D_3  S_3  
     e( 23 - 24) =     29.14989  eV     2   --> B_2  D_4  S_4  
     e( 25 - 25) =     29.75474  eV     1   --> A_1  D_1  S_1  
     e( 26 - 26) =     29.81465  eV     1   --> A_2  D_2  S_2  
     e( 27 - 27) =     36.21304  eV     1   --> A_1  D_1  S_1  
     e( 28 - 29) =     39.90935  eV     2   --> B_1  D_3  S_3  
     e( 28 - 29) =     39.90935  eV     2   --> B_2  D_4  S_4  
     e( 30 - 30) =     39.94992  eV     1   --> A_1  D_1  S_1  
     e( 31 - 31) =     40.69965  eV     1   --> A_1  D_1  S_1  
     e( 32 - 32) =     40.80415  eV     1   -->   ?

 **************************************************************************

 **************************************************************************

                    xk=(  -0.03333,   0.00000,   0.00000  )

     Band symmetry, C_2v (mm2)  point group:

     e(  1 -  1) =     -6.95036  eV     1   --> A_1  D_1  S_1  
     e(  2 -  2) =      4.83724  eV     1   --> A_1  D_1  S_1  
     e(  3 -  4) =      4.94911  eV     2   --> B_1  D_3  S_3  
     e(  3 -  4) =      4.94911  eV     2   --> B_2  D_4  S_4  
     e(  5 -  5) =      5.64832  eV     1   --> A_1  D_1  S_1  
     e(  6 -  6) =      7.83583  eV     1   --> A_1  D_1  S_1  
     e(  7 -  8) =      7.87399  eV     2   --> B_1  D_3  S_3  
     e(  7 -  8) =      7.87399  eV     2   --> B_2  D_4  S_4  
     e(  9 -  9) =     10.98143  eV     1   --> A_1  D_1  S_1  
     e( 10 - 10) =     13.85022  eV     1   --> A_1  D_1  S_1  
     e( 11 - 11) =     13.97195  eV     1   --> A_2  D_2  S_2  
     e( 12 - 13) =     14.90672  eV     2   --> B_1  D_3  S_3  
     e( 12 - 13) =     14.90672  eV     2   --> B_2  D_4  S_4  
     e( 14 - 14) =     14.99766  eV     1   --> A_1  D_1  S_1  
     e( 15 - 15) =     17.52130  eV     1   --> A_1  D_1  S_1  
     e( 16 - 17) =     28.20116  eV     2   --> B_1  D_3  S_3  
     e( 16 - 17) =     28.20116  eV     2   --> B_2  D_4  S_4  
     e( 18 - 18) =     28.40512  eV     1   --> A_1  D_1  S_1  
     e( 19 - 19) =     28.73748  eV     1   --> A_2  D_2  S_2  
     e( 20 - 21) =     28.79884  eV     2   --> B_1  D_3  S_3  
     e( 20 - 21) =     28.79884  eV     2   --> B_2  D_4  S_4  
     e( 22 - 22) =     28.87504  eV     1   --> A_1  D_1  S_1  
     e( 23 - 24) =     29.38850  eV     2   --> B_1  D_3  S_3  
     e( 23 - 24) =     29.38850  eV     2   --> B_2  D_4  S_4  
     e( 25 - 25) =     29.81770  eV     1   --> A_1  D_1  S_1  
     e( 26 - 26) =     30.00229  eV     1   --> A_2  D_2  S_2  
     e( 27 - 27) =     36.22268  eV     1   --> A_1  D_1  S_1  
     e( 28 - 29) =     39.77153  eV     2   --> B_1  D_3  S_3  
     e( 28 - 29) =     39.77153  eV     2   --> B_2  D_4  S_4  
     e( 30 - 30) =     39.91606  eV     1   --> A_1  D_1  S_1  
     e( 31 - 31) =     40.50232  eV     1   --> A_1  D_1  S_1  
     e( 32 - 32) =     40.84736  eV     1   -->   ?

 **************************************************************************

 **************************************************************************

                    xk=(  -0.05000,   0.00000,   0.00000  )

     Band symmetry, C_2v (mm2)  point group:

     e(  1 -  1) =     -6.94541  eV     1   --> A_1  D_1  S_1  
     e(  2 -  2) =      4.71769  eV     1   --> A_1  D_1  S_1  
     e(  3 -  4) =      4.92676  eV     2   --> B_1  D_3  S_3  
     e(  3 -  4) =      4.92676  eV     2   --> B_2  D_4  S_4  
     e(  5 -  5) =      5.76404  eV     1   --> A_1  D_1  S_1  
     e(  6 -  6) =      7.81825  eV     1   --> A_1  D_1  S_1  
     e(  7 -  8) =      7.90317  eV     2   --> B_1  D_3  S_3  
     e(  7 -  8) =      7.90317  eV     2   --> B_2  D_4  S_4  
     e(  9 -  9) =     11.01329  eV     1   --> A_1  D_1  S_1  
     e( 10 - 10) =     13.72932  eV     1   --> A_1  D_1  S_1  
     e( 11 - 11) =     13.97718  eV     1   --> A_2  D_2  S_2  
     e( 12 - 13) =     14.91727  eV     2   --> B_1  D_3  S_3  
     e( 12 - 13) =     14.91727  eV     2   --> B_2  D_4  S_4  
     e( 14 - 14) =     15.09581  eV     1   --> A_1  D_1  S_1  
     e( 15 - 15) =     17.57306  eV     1   --> A_1  D_1  S_1  
     e( 16 - 17) =     27.96071  eV     2   --> B_1  D_3  S_3  
     e( 16 - 17) =     27.96071  eV     2   --> B_2  D_4  S_4  
     e( 18 - 18) =     28.29583  eV     1   --> A_1  D_1  S_1  
     e( 19 - 19) =     28.51927  eV     1   --> A_2  D_2  S_2  
     e( 20 - 21) =     28.79598  eV     2   --> B_1  D_3  S_3  
     e( 20 - 21) =     28.79598  eV     2   --> B_2  D_4  S_4  
     e( 22 - 22) =     28.87825  eV     1   --> A_1  D_1  S_1  
     e( 23 - 24) =     29.64588  eV     2   --> B_1  D_3  S_3  
     e( 23 - 24) =     29.64588  eV     2   --> B_2  D_4  S_4  
     e( 25 - 25) =     29.90923  eV     1   --> A_1  D_1  S_1  
     e( 26 - 26) =     30.23068  eV     1   --> A_2  D_2  S_2  
     e( 27 - 27) =     36.23818  eV     1   --> A_1  D_1  S_1  
     e( 28 - 29) =     39.57776  eV     2   --> B_1  D_3  S_3  
     e( 28 - 29) =     39.57776  eV     2   --> B_2  D_4  S_4  
     e( 30 - 30) =     39.85997  eV     1   --> A_1  D_1  S_1  
     e( 31 - 31) =     40.25369  eV     1   --> A_1  D_1  S_1  
     e( 32 - 32) =     40.87692  eV     1   -->   ?

 **************************************************************************

 **************************************************************************

                    xk=(  -0.06667,   0.00000,   0.00000  )

     Band symmetry, C_2v (mm2)  point group:

     e(  1 -  1) =     -6.93847  eV     1   --> A_1  D_1  S_1  
     e(  2 -  2) =      4.58558  eV     1   --> A_1  D_1  S_1  
     e(  3 -  4) =      4.89623  eV     2   --> B_1  D_3  S_3  
     e(  3 -  4) =      4.89623  eV     2   --> B_2  D_4  S_4  
     e(  5 -  5) =      5.89046  eV     1   --> A_1  D_1  S_1  
     e(  6 -  6) =      7.79455  eV     1   --> A_1  D_1  S_1  
     e(  7 -  8) =      7.94324  eV     2   --> B_1  D_3  S_3  
     e(  7 -  8) =      7.94324  eV     2   --> B_2  D_4  S_4  
     e(  9 -  9) =     11.05718  eV     1   --> A_1  D_1  S_1  
     e( 10 - 10) =     13.58801  eV     1   --> A_1  D_1  S_1  
     e( 11 - 11) =     13.98451  eV     1   --> A_2  D_2  S_2  
     e( 12 - 13) =     14.93204  eV     2   --> B_1  D_3  S_3  
     e( 12 - 13) =     14.93204  eV     2   --> B_2  D_4  S_4  
     e( 14 - 14) =     15.20531  eV     1   --> A_1  D_1  S_1  
     e( 15 - 15) =     17.64561  eV     1   --> A_1  D_1  S_1  
     e( 16 - 17) =     27.71086  eV     2   --> B_1  D_3  S_3  
     e( 16 - 17) =     27.71086  eV     2   --> B_2  D_4  S_4  
     e( 18 - 18) =     28.16098  eV     1   --> A_1  D_1  S_1  
     e( 19 - 19) =     28.28787  eV     1   --> A_2  D_2  S_2  
     e( 20 - 21) =     28.80021  eV     2   --> B_1  D_3  S_3  
     e( 20 - 21) =     28.80021  eV     2   --> B_2  D_4  S_4  
     e( 22 - 22) =     28.88377  eV     1   --> A_1  D_1  S_1  
     e( 23 - 24) =     29.91117  eV     2   --> B_1  D_3  S_3  
     e( 23 - 24) =     29.91117  eV     2   --> B_2  D_4  S_4  
     e( 25 - 25) =     30.01825  eV     1   --> A_1  D_1  S_1  
     e( 26 - 26) =     30.47632  eV     1   --> A_2  D_2  S_2  
     e( 27 - 27) =     36.25864  eV     1   --> A_1  D_1  S_1  
     e( 28 - 29) =     39.34791  eV     2   --> B_1  D_3  S_3  
     e( 28 - 29) =     39.34791  eV     2   --> B_2  D_4  S_4  
     e( 30 - 30) =     39.77795  eV     1   --> A_1  D_1  S_1  
     e( 31 - 31) =     39.98734  eV     1   --> A_1  D_1  S_1  
     e( 32 - 32) =     40.86863  eV     1   -->   ?

 **************************************************************************

 **************************************************************************

                    xk=(  -0.08333,   0.00000,   0.00000  )

     Band symmetry, C_2v (mm2)  point group:

     e(  1 -  1) =     -6.92955  eV     1   --> A_1  D_1  S_1  
     e(  2 -  2) =      4.44710  eV     1   --> A_1  D_1  S_1  
     e(  3 -  4) =      4.85821  eV     2   --> B_1  D_3  S_3  
     e(  3 -  4) =      4.85821  eV     2   --> B_2  D_4  S_4  
     e(  5 -  5) =      6.02099  eV     1   --> A_1  D_1  S_1  
     e(  6 -  6) =      7.76562  eV     1   --> A_1  D_1  S_1  
     e(  7 -  8) =      7.99350  eV     2   --> B_1  D_3  S_3  
     e(  7 -  8) =      7.99350  eV     2   --> B_2  D_4  S_4  
     e(  9 -  9) =     11.11246  eV     1   --> A_1  D_1  S_1  
     e( 10 - 10) =     13.43539  eV     1   --> A_1  D_1  S_1  
     e( 11 - 11) =     13.99393  eV     1   --> A_2  D_2  S_2  
     e( 12 - 13) =     14.95103  eV     2   --> B_1  D_3  S_3  
     e( 12 - 13) =     14.95103  eV     2   --> B_2  D_4  S_4  
     e( 14 - 14) =     15.31733  eV     1   --> A_1  D_1  S_1  
     e( 15 - 15) =     17.73882  eV     1   --> A_1  D_1  S_1  
     e( 16 - 17) =     27.45813  eV     2   --> B_1  D_3  S_3  
     e( 16 - 17) =     27.45813  eV     2   --> B_2  D_4  S_4  
     e( 18 - 18) =     28.00864  eV     1   --> A_1  D_1  S_1  
     e( 19 - 19) =     28.05141  eV     1   --> A_2  D_2  S_2  
     e( 20 - 21) =     28.80835  eV     2   --> B_1  D_3  S_3  
     e( 20 - 21) =     28.80835  eV     2   --> B_2  D_4  S_4  
     e( 22 - 22) =     28.89158  eV     1   --> A_1  D_1  S_1  
     e( 23 - 23) =     30.13681  eV     1   --> A_1  D_1  S_1  
     e( 24 - 25) =     30.18103  eV     2   --> B_1  D_3  S_3  
     e( 24 - 25) =     30.18103  eV     2   --> B_2  D_4  S_4  
     e( 26 - 26) =     30.73107  eV     1   --> A_2  D_2  S_2  
     e( 27 - 27) =     36.28265  eV     1   --> A_1  D_1  S_1  
     e( 28 - 29) =     39.09296  eV     2   --> B_1  D_3  S_3  
     e( 28 - 29) =     39.09296  eV     2   --> B_2  D_4  S_4  
     e( 30 - 30) =     39.62957  eV     1   --> A_1  D_1  S_1  
     e( 31 - 31) =     39.75787  eV     1   --> A_1  D_1  S_1  
     e( 32 - 32) =     40.62639  eV     1   --> A_1  D_1  S_1  

 **************************************************************************

 **************************************************************************

                    xk=(  -0.10000,   0.00000,   0.00000  )

     Band symmetry, C_2v (mm2)  point group:

     e(  1 -  1) =     -6.91866  eV     1   --> A_1  D_1  S_1  
     e(  2 -  2) =      4.30510  eV     1   --> A_1  D_1  S_1  
     e(  3 -  4) =      4.81348  eV     2   --> B_1  D_3  S_3  
     e(  3 -  4) =      4.81348  eV     2   --> B_2  D_4  S_4  
     e(  5 -  5) =      6.15221  eV     1   --> A_1  D_1  S_1  
     e(  6 -  6) =      7.73257  eV     1   --> A_1  D_1  S_1  
     e(  7 -  8) =      8.05319  eV     2   --> B_1  D_3  S_3  
     e(  7 -  8) =      8.05319  eV     2   --> B_2  D_4  S_4  
     e(  9 -  9) =     11.17841  eV     1   --> A_1  D_1  S_1  
     e( 10 - 10) =     13.27687  eV     1   --> A_1  D_1  S_1  
     e( 11 - 11) =     14.00545  eV     1   --> A_2  D_2  S_2  
     e( 12 - 13) =     14.97426  eV     2   --> B_1  D_3  S_3  
     e( 12 - 13) =     14.97426  eV     2   --> B_2  D_4  S_4  
     e( 14 - 14) =     15.42702  eV     1   --> A_1  D_1  S_1  
     e( 15 - 15) =     17.85228  eV     1   --> A_1  D_1  S_1  
     e( 16 - 17) =     27.20486  eV     2   --> B_1  D_3  S_3  
     e( 16 - 17) =     27.20486  eV     2   --> B_2  D_4  S_4  
     e( 18 - 18) =     27.81322  eV     1   --> A_2  D_2  S_2  
     e( 19 - 19) =     27.84416  eV     1   --> A_1  D_1  S_1  
     e( 20 - 21) =     28.81939  eV     2   --> B_1  D_3  S_3  
     e( 20 - 21) =     28.81939  eV     2   --> B_2  D_4  S_4  
     e( 22 - 22) =     28.90158  eV     1   --> A_1  D_1  S_1  
     e( 23 - 23) =     30.25979  eV     1   --> A_1  D_1  S_1  
     e( 24 - 25) =     30.45409  eV     2   --> B_1  D_3  S_3  
     e( 24 - 25) =     30.45409  eV     2   --> B_2  D_4  S_4  
     e( 26 - 26) =     30.99159  eV     1   --> A_2  D_2  S_2  
     e( 27 - 27) =     36.30808  eV     1   --> A_1  D_1  S_1  
     e( 28 - 29) =     38.81944  eV     2   --> B_1  D_3  S_3  
     e( 28 - 29) =     38.81944  eV     2   --> B_2  D_4  S_4  
     e( 30 - 30) =     39.37076  eV     1   --> A_1  D_1  S_1  
     e( 31 - 31) =     39.61521  eV     1   --> A_1  D_1  S_1  
     e( 32 - 32) =     40.32989  eV     1   --> A_1  D_1  S_1  

 **************************************************************************

 **************************************************************************

                    xk=(  -0.11667,   0.00000,   0.00000  )

     Band symmetry, C_2v (mm2)  point group:

     e(  1 -  1) =     -6.90579  eV     1   --> A_1  D_1  S_1  
     e(  2 -  2) =      4.16103  eV     1   --> A_1  D_1  S_1  
     e(  3 -  4) =      4.76285  eV     2   --> B_1  D_3  S_3  
     e(  3 -  4) =      4.76285  eV     2   --> B_2  D_4  S_4  
     e(  5 -  5) =      6.28184  eV     1   --> A_1  D_1  S_1  
     e(  6 -  6) =      7.69675  eV     1   --> A_1  D_1  S_1  
     e(  7 -  8) =      8.12148  eV     2   --> B_1  D_3  S_3  
     e(  7 -  8) =      8.12148  eV     2   --> B_2  D_4  S_4  
     e(  9 -  9) =     11.25425  eV     1   --> A_1  D_1  S_1  
     e( 10 - 10) =     13.11585  eV     1   --> A_1  D_1  S_1  
     e( 11 - 11) =     14.01905  eV     1   --> A_2  D_2  S_2  
     e( 12 - 13) =     15.00173  eV     2   --> B_1  D_3  S_3  
     e( 12 - 13) =     15.00173  eV     2   --> B_2  D_4  S_4  
     e( 14 - 14) =     15.53192  eV     1   --> A_1  D_1  S_1  
     e( 15 - 15) =     17.98529  eV     1   --> A_1  D_1  S_1  
     e( 16 - 17) =     26.95207  eV     2   --> B_1  D_3  S_3  
     e( 16 - 17) =     26.95207  eV     2   --> B_2  D_4  S_4  
     e( 18 - 18) =     27.57485  eV     1   --> A_2  D_2  S_2  
     e( 19 - 19) =     27.67100  eV     1   --> A_1  D_1  S_1  
     e( 20 - 21) =     28.83295  eV     2   --> B_1  D_3  S_3  
     e( 20 - 21) =     28.83295  eV     2   --> B_2  D_4  S_4  
     e( 22 - 22) =     28.91366  eV     1   --> A_1  D_1  S_1  
     e( 23 - 23) =     30.38393  eV     1   --> A_1  D_1  S_1  
     e( 24 - 25) =     30.72969  eV     2   --> B_1  D_3  S_3  
     e( 24 - 25) =     30.72969  eV     2   --> B_2  D_4  S_4  
     e( 26 - 26) =     31.25632  eV     1   --> A_2  D_2  S_2  
     e( 27 - 27) =     36.33188  eV     1   --> A_1  D_1  S_1  
     e( 28 - 29) =     38.53168  eV     2   --> B_1  D_3  S_3  
     e( 28 - 29) =     38.53168  eV     2   --> B_2  D_4  S_4  
     e( 30 - 30) =     39.08952  eV     1   --> A_1  D_1  S_1  
     e( 31 - 31) =     39.46899  eV     1   --> A_1  D_1  S_1  
     e( 32 - 32) =     40.04529  eV     1   --> A_1  D_1  S_1  

 **************************************************************************

 **************************************************************************

                    xk=(  -0.13333,   0.00000,   0.00000  )

     Band symmetry, C_2v (mm2)  point group:

     e(  1 -  1) =     -6.89096  eV     1   --> A_1  D_1  S_1  
     e(  2 -  2) =      4.01571  eV     1   --> A_1  D_1  S_1  
     e(  3 -  4) =      4.70712  eV     2   --> B_1  D_3  S_3  
     e(  3 -  4) =      4.70712  eV     2   --> B_2  D_4  S_4  
     e(  5 -  5) =      6.40787  eV     1   --> A_1  D_1  S_1  
     e(  6 -  6) =      7.65987  eV     1   --> A_1  D_1  S_1  
     e(  7 -  8) =      8.19754  eV     2   --> B_1  D_3  S_3  
     e(  7 -  8) =      8.19754  eV     2   --> B_2  D_4  S_4  
     e(  9 -  9) =     11.33917  eV     1   --> A_1  D_1  S_1  
     e( 10 - 10) =     12.95468  eV     1   --> A_1  D_1  S_1  
     e( 11 - 11) =     14.03476  eV     1   --> A_2  D_2  S_2  
     e( 12 - 13) =     15.03345  eV     2   --> B_1  D_3  S_3  
     e( 12 - 13) =     15.03345  eV     2   --> B_2  D_4  S_4  
     e( 14 - 14) =     15.63105  eV     1   --> A_1  D_1  S_1  
     e( 15 - 15) =     18.13679  eV     1   --> A_1  D_1  S_1  
     e( 16 - 17) =     26.70025  eV     2   --> B_1  D_3  S_3  
     e( 16 - 17) =     26.70025  eV     2   --> B_2  D_4  S_4  
     e( 18 - 18) =     27.33714  eV     1   --> A_2  D_2  S_2  
     e( 19 - 19) =     27.49145  eV     1   --> A_1  D_1  S_1  
     e( 20 - 21) =     28.84888  eV     2   --> B_1  D_3  S_3  
     e( 20 - 21) =     28.84888  eV     2   --> B_2  D_4  S_4  
     e( 22 - 22) =     28.92778  eV     1   --> A_1  D_1  S_1  
     e( 23 - 23) =     30.50717  eV     1   --> A_1  D_1  S_1  
     e( 24 - 25) =     31.00744  eV     2   --> B_1  D_3  S_3  
     e( 24 - 25) =     31.00744  eV     2   --> B_2  D_4  S_4  
     e( 26 - 26) =     31.52440  eV     1   --> A_2  D_2  S_2  
     e( 27 - 27) =     36.34960  eV     1   --> A_1  D_1  S_1  
     e( 28 - 29) =     38.23289  eV     2   --> B_1  D_3  S_3  
     e( 28 - 29) =     38.23289  eV     2   --> B_2  D_4  S_4  
     e( 30 - 30) =     38.81263  eV     1   --> A_1  D_1  S_1  
     e( 31 - 31) =     39.28084  eV     1   --> A_1  D_1  S_1  
     e( 32 - 32) =     39.79764  eV     1   --> A_1  D_1  S_1  

 **************************************************************************

 **************************************************************************

                    xk=(  -0.15000,   0.00000,   0.00000  )

     Band symmetry, C_2v (mm2)  point group:

     e(  1 -  1) =     -6.87416  eV     1   --> A_1  D_1  S_1  
     e(  2 -  2) =      3.86963  eV     1   --> A_1  D_1  S_1  
     e(  3 -  4) =      4.64706  eV     2   --> B_1  D_3  S_3  
     e(  3 -  4) =      4.64706  eV     2   --> B_2  D_4  S_4  
     e(  5 -  5) =      6.52800  eV     1   --> A_1  D_1  S_1  
     e(  6 -  6) =      7.62412  eV     1   --> A_1  D_1  S_1  
     e(  7 -  8) =      8.28061  eV     2   --> B_1  D_3  S_3  
     e(  7 -  8) =      8.28061  eV     2   --> B_2  D_4  S_4  
     e(  9 -  9) =     11.43237  eV     1   --> A_1  D_1  S_1  
     e( 10 - 10) =     12.79513  eV     1   --> A_1  D_1  S_1  
     e( 11 - 11) =     14.05256  eV     1   --> A_2  D_2  S_2  
     e( 12 - 13) =     15.06943  eV     2   --> B_1  D_3  S_3  
     e( 12 - 13) =     15.06943  eV     2   --> B_2  D_4  S_4  
     e( 14 - 14) =     15.72432  eV     1   --> A_1  D_1  S_1  
     e( 15 - 15) =     18.30544  eV     1   --> A_1  D_1  S_1  
     e( 16 - 17) =     26.44969  eV     2   --> B_1  D_3  S_3  
     e( 16 - 17) =     26.44969  eV     2   --> B_2  D_4  S_4  
     e( 18 - 18) =     27.10056  eV     1   --> A_2  D_2  S_2  
     e( 19 - 19) =     27.30708  eV     1   --> A_1  D_1  S_1  
     e( 20 - 21) =     28.86707  eV     2   --> B_1  D_3  S_3  
     e( 20 - 21) =     28.86707  eV     2   --> B_2  D_4  S_4  
     e( 22 - 22) =     28.94389  eV     1   --> A_1  D_1  S_1  
     e( 23 - 23) =     30.62814  eV     1   --> A_1  D_1  S_1  
     e( 24 - 25) =     31.28708  eV     2   --> B_1  D_3  S_3  
     e( 24 - 25) =     31.28708  eV     2   --> B_2  D_4  S_4  
     e( 26 - 26) =     31.79533  eV     1   --> A_2  D_2  S_2  
     e( 27 - 27) =     36.35490  eV     1   --> A_1  D_1  S_1  
     e( 28 - 29) =     37.92557  eV     2   --> B_1  D_3  S_3  
     e( 28 - 29) =     37.92557  eV     2   --> B_2  D_4  S_4  
     e( 30 - 30) =     38.54911  eV     1   --> A_1  D_1  S_1  
     e( 31 - 31) =     39.03571  eV     1   --> A_1  D_1  S_1  
     e( 32 - 32) =     39.60450  eV     1   --> A_1  D_1  S_1  

 **************************************************************************

 **************************************************************************

                    xk=(  -0.16667,   0.00000,   0.00000  )

     Band symmetry, C_2v (mm2)  point group:

     e(  1 -  1) =     -6.85539  eV     1   --> A_1  D_1  S_1  
     e(  2 -  2) =      3.72313  eV     1   --> A_1  D_1  S_1  
     e(  3 -  4) =      4.58340  eV     2   --> B_1  D_3  S_3  
     e(  3 -  4) =      4.58340  eV     2   --> B_2  D_4  S_4  
     e(  5 -  5) =      6.63922  eV     1   --> A_1  D_1  S_1  
     e(  6 -  6) =      7.59247  eV     1   --> A_1  D_1  S_1  
     e(  7 -  8) =      8.36993  eV     2   --> B_1  D_3  S_3  
     e(  7 -  8) =      8.36993  eV     2   --> B_2  D_4  S_4  
     e(  9 -  9) =     11.53305  eV     1   --> A_1  D_1  S_1  
     e( 10 - 10) =     12.63870  eV     1   --> A_1  D_1  S_1  
     e( 11 - 11) =     14.07245  eV     1   --> A_2  D_2  S_2  
     e( 12 - 13) =     15.10968  eV     2   --> B_1  D_3  S_3  
     e( 12 - 13) =     15.10968  eV     2   --> B_2  D_4  S_4  
     e( 14 - 14) =     15.81222  eV     1   --> A_1  D_1  S_1  
     e( 15 - 15) =     18.48977  eV     1   --> A_1  D_1  S_1  
     e( 16 - 17) =     26.20057  eV     2   --> B_1  D_3  S_3  
     e( 16 - 17) =     26.20057  eV     2   --> B_2  D_4  S_4  
     e( 18 - 18) =     26.86542  eV     1   --> A_2  D_2  S_2  
     e( 19 - 19) =     27.11905  eV     1   --> A_1  D_1  S_1  
     e( 20 - 21) =     28.88749  eV     2   --> B_1  D_3  S_3  
     e( 20 - 21) =     28.88749  eV     2   --> B_2  D_4  S_4  
     e( 22 - 22) =     28.96198  eV     1   --> A_1  D_1  S_1  
     e( 23 - 23) =     30.74591  eV     1   --> A_1  D_1  S_1  
     e( 24 - 25) =     31.56841  eV     2   --> B_1  D_3  S_3  
     e( 24 - 25) =     31.56841  eV     2   --> B_2  D_4  S_4  
     e( 26 - 26) =     32.06879  eV     1   --> A_2  D_2  S_2  
     e( 27 - 27) =     36.33917  eV     1   --> A_1  D_1  S_1  
     e( 28 - 29) =     37.61173  eV     2   --> B_1  D_3  S_3  
     e( 28 - 29) =     37.61173  eV     2   --> B_2  D_4  S_4  
     e( 30 - 30) =     38.30660  eV     1   --> A_1  D_1  S_1  
     e( 31 - 31) =     38.74664  eV     1   --> A_1  D_1  S_1  
     e( 32 - 32) =     39.45714  eV     1   --> A_1  D_1  S_1  

 **************************************************************************

 **************************************************************************

                    xk=(  -0.18333,   0.00000,   0.00000  )

     Band symmetry, C_2v (mm2)  point group:

     e(  1 -  1) =     -6.83468  eV     1   --> A_1  D_1  S_1  
     e(  2 -  2) =      3.57642  eV     1   --> A_1  D_1  S_1  
     e(  3 -  4) =      4.51679  eV     2   --> B_1  D_3  S_3  
     e(  3 -  4) =      4.51679  eV     2   --> B_2  D_4  S_4  
     e(  5 -  5) =      6.73736  eV     1   --> A_1  D_1  S_1  
     e(  6 -  6) =      7.56904  eV     1   --> A_1  D_1  S_1  
     e(  7 -  8) =      8.46484  eV     2   --> B_1  D_3  S_3  
     e(  7 -  8) =      8.46484  eV     2   --> B_2  D_4  S_4  
     e(  9 -  9) =     11.64031  eV     1   --> A_1  D_1  S_1  
     e( 10 - 10) =     12.48683  eV     1   --> A_1  D_1  S_1  
     e( 11 - 11) =     14.09444  eV     1   --> A_2  D_2  S_2  
     e( 12 - 13) =     15.15421  eV     2   --> B_1  D_3  S_3  
     e( 12 - 13) =     15.15421  eV     2   --> B_2  D_4  S_4  
     e( 14 - 14) =     15.89555  eV     1   --> A_1  D_1  S_1  
     e( 15 - 15) =     18.68824  eV     1   --> A_1  D_1  S_1  
     e( 16 - 17) =     25.95300  eV     2   --> B_1  D_3  S_3  
     e( 16 - 17) =     25.95300  eV     2   --> B_2  D_4  S_4  
     e( 18 - 18) =     26.63190  eV     1   --> A_2  D_2  S_2  
     e( 19 - 19) =     26.92819  eV     1   --> A_1  D_1  S_1  
     e( 20 - 21) =     28.91010  eV     2   --> B_1  D_3  S_3  
     e( 20 - 21) =     28.91010  eV     2   --> B_2  D_4  S_4  
     e( 22 - 22) =     28.98203  eV     1   --> A_1  D_1  S_1  
     e( 23 - 23) =     30.85986  eV     1   --> A_1  D_1  S_1  
     e( 24 - 25) =     31.85122  eV     2   --> B_1  D_3  S_3  
     e( 24 - 25) =     31.85122  eV     2   --> B_2  D_4  S_4  
     e( 26 - 26) =     32.34456  eV     1   --> A_2  D_2  S_2  
     e( 27 - 27) =     36.29187  eV     1   --> A_1  D_1  S_1  
     e( 28 - 29) =     37.29301  eV     2   --> B_1  D_3  S_3  
     e( 28 - 29) =     37.29301  eV     2   --> B_2  D_4  S_4  
     e( 30 - 30) =     38.09122  eV     1   --> A_1  D_1  S_1  
     e( 31 - 31) =     38.43757  eV     1   --> A_1  D_1  S_1  
     e( 32 - 32) =     39.33826  eV     1   --> A_1  D_1  S_1  

 **************************************************************************

 **************************************************************************

                    xk=(  -0.20000,   0.00000,   0.00000  )

     Band symmetry, C_2v (mm2)  point group:

     e(  1 -  1) =     -6.81201  eV     1   --> A_1  D_1  S_1  
     e(  2 -  2) =      3.42967  eV     1   --> A_1  D_1  S_1  
     e(  3 -  4) =      4.44781  eV     2   --> B_1  D_3  S_3  
     e(  3 -  4) =      4.44781  eV     2   --> B_2  D_4  S_4  
     e(  5 -  5) =      6.81687  eV     1   --> A_1  D_1  S_1  
     e(  6 -  6) =      7.55920  eV     1   --> A_1  D_1  S_1  
     e(  7 -  8) =      8.56473  eV     2   --> B_1  D_3  S_3  
     e(  7 -  8) =      8.56473  eV     2   --> B_2  D_4  S_4  
     e(  9 -  9) =     11.75292  eV     1   --> A_1  D_1  S_1  
     e( 10 - 10) =     12.34129  eV     1   --> A_1  D_1  S_1  
     e( 11 - 11) =     14.11853  eV     1   --> A_2  D_2  S_2  
     e( 12 - 13) =     15.20303  eV     2   --> B_1  D_3  S_3  
     e( 12 - 13) =     15.20303  eV     2   --> B_2  D_4  S_4  
     e( 14 - 14) =     15.97522  eV     1   --> A_1  D_1  S_1  
     e( 15 - 15) =     18.89935  eV     1   --> A_1  D_1  S_1  
     e( 16 - 17) =     25.70704  eV     2   --> B_1  D_3  S_3  
     e( 16 - 17) =     25.70704  eV     2   --> B_2  D_4  S_4  
     e( 18 - 18) =     26.40013  eV     1   --> A_2  D_2  S_2  
     e( 19 - 19) =     26.73518  eV     1   --> A_1  D_1  S_1  
     e( 20 - 21) =     28.93488  eV     2   --> B_1  D_3  S_3  
     e( 20 - 21) =     28.93488  eV     2   --> B_2  D_4  S_4  
     e( 22 - 22) =     29.00403  eV     1   --> A_1  D_1  S_1  
     e( 23 - 23) =     30.96953  eV     1   --> A_1  D_1  S_1  
     e( 24 - 25) =     32.13531  eV     2   --> B_1  D_3  S_3  
     e( 24 - 25) =     32.13531  eV     2   --> B_2  D_4  S_4  
     e( 26 - 26) =     32.62247  eV     1   --> A_2  D_2  S_2  
     e( 27 - 27) =     36.20290  eV     1   --> A_1  D_1  S_1  
     e( 28 - 29) =     36.97081  eV     2   --> B_1  D_3  S_3  
     e( 28 - 29) =     36.97081  eV     2   --> B_2  D_4  S_4  
     e( 30 - 30) =     37.89721  eV     1   --> A_1  D_1  S_1  
     e( 31 - 31) =     38.13480  eV     1   --> A_1  D_1  S_1  
     e( 32 - 32) =     39.23896  eV     1   --> A_1  D_1  S_1  

 **************************************************************************

 **************************************************************************

                    xk=(  -0.21667,   0.00000,   0.00000  )

     Band symmetry, C_2v (mm2)  point group:

     e(  1 -  1) =     -6.78740  eV     1   --> A_1  D_1  S_1  
     e(  2 -  2) =      3.28298  eV     1   --> A_1  D_1  S_1  
     e(  3 -  4) =      4.37700  eV     2   --> B_1  D_3  S_3  
     e(  3 -  4) =      4.37700  eV     2   --> B_2  D_4  S_4  
     e(  5 -  5) =      6.87193  eV     1   --> A_1  D_1  S_1  
     e(  6 -  6) =      7.56850  eV     1   --> A_1  D_1  S_1  
     e(  7 -  8) =      8.66905  eV     2   --> B_1  D_3  S_3  
     e(  7 -  8) =      8.66905  eV     2   --> B_2  D_4  S_4  
     e(  9 -  9) =     11.86777  eV     1   --> A_1  D_1  S_1  
     e( 10 - 10) =     12.20575  eV     1   --> A_1  D_1  S_1  
     e( 11 - 11) =     14.14472  eV     1   --> A_2  D_2  S_2  
     e( 12 - 13) =     15.25616  eV     2   --> B_1  D_3  S_3  
     e( 12 - 13) =     15.25616  eV     2   --> B_2  D_4  S_4  
     e( 14 - 14) =     16.05218  eV     1   --> A_1  D_1  S_1  
     e( 15 - 15) =     19.12171  eV     1   --> A_1  D_1  S_1  
     e( 16 - 17) =     25.46276  eV     2   --> B_1  D_3  S_3  
     e( 16 - 17) =     25.46276  eV     2   --> B_2  D_4  S_4  
     e( 18 - 18) =     26.17021  eV     1   --> A_2  D_2  S_2  
     e( 19 - 19) =     26.54056  eV     1   --> A_1  D_1  S_1  
     e( 20 - 21) =     28.96180  eV     2   --> B_1  D_3  S_3  
     e( 20 - 21) =     28.96180  eV     2   --> B_2  D_4  S_4  
     e( 22 - 22) =     29.02797  eV     1   --> A_1  D_1  S_1  
     e( 23 - 23) =     31.07456  eV     1   --> A_1  D_1  S_1  
     e( 24 - 25) =     32.42038  eV     2   --> B_1  D_3  S_3  
     e( 24 - 25) =     32.42038  eV     2   --> B_2  D_4  S_4  
     e( 26 - 26) =     32.90238  eV     1   --> A_2  D_2  S_2  
     e( 27 - 27) =     36.06688  eV     1   --> A_1  D_1  S_1  
     e( 28 - 29) =     36.64639  eV     2   --> B_1  D_3  S_3  
     e( 28 - 29) =     36.64639  eV     2   --> B_2  D_4  S_4  
     e( 30 - 30) =     37.66819  eV     1   --> A_1  D_1  S_1  
     e( 31 - 31) =     37.90304  eV     1   --> A_1  D_1  S_1  
     e( 32 - 32) =     39.15735  eV     1   --> A_1  D_1  S_1  

 **************************************************************************

 **************************************************************************

                    xk=(  -0.23333,   0.00000,   0.00000  )

     Band symmetry, C_2v (mm2)  point group:

     e(  1 -  1) =     -6.76086  eV     1   --> A_1  D_1  S_1  
     e(  2 -  2) =      3.13647  eV     1   --> A_1  D_1  S_1  
     e(  3 -  4) =      4.30481  eV     2   --> B_1  D_3  S_3  
     e(  3 -  4) =      4.30481  eV     2   --> B_2  D_4  S_4  
     e(  5 -  5) =      6.89926  eV     1   --> A_1  D_1  S_1  
     e(  6 -  6) =      7.59979  eV     1   --> A_1  D_1  S_1  
     e(  7 -  8) =      8.77733  eV     2   --> B_1  D_3  S_3  
     e(  7 -  8) =      8.77733  eV     2   --> B_2  D_4  S_4  
     e(  9 -  9) =     11.96165  eV     1   --> A_1  D_1  S_1  
     e( 10 - 10) =     12.10408  eV     1   --> A_1  D_1  S_1  
     e( 11 - 11) =     14.17300  eV     1   --> A_2  D_2  S_2  
     e( 12 - 13) =     15.31360  eV     2   --> B_1  D_3  S_3  
     e( 12 - 13) =     15.31360  eV     2   --> B_2  D_4  S_4  
     e( 14 - 14) =     16.12732  eV     1   --> A_1  D_1  S_1  
     e( 15 - 15) =     19.35406  eV     1   --> A_1  D_1  S_1  
     e( 16 - 17) =     25.22020  eV     2   --> B_1  D_3  S_3  
     e( 16 - 17) =     25.22020  eV     2   --> B_2  D_4  S_4  
     e( 18 - 18) =     25.94220  eV     1   --> A_2  D_2  S_2  
     e( 19 - 19) =     26.34478  eV     1   --> A_1  D_1  S_1  
     e( 20 - 21) =     28.99086  eV     2   --> B_1  D_3  S_3  
     e( 20 - 21) =     28.99086  eV     2   --> B_2  D_4  S_4  
     e( 22 - 22) =     29.05385  eV     1   --> A_1  D_1  S_1  
     e( 23 - 23) =     31.17464  eV     1   --> A_1  D_1  S_1  
     e( 24 - 25) =     32.70598  eV     2   --> B_1  D_3  S_3  
     e( 24 - 25) =     32.70598  eV     2   --> B_2  D_4  S_4  
     e( 26 - 26) =     33.18416  eV     1   --> A_2  D_2  S_2  
     e( 27 - 27) =     35.88622  eV     1   --> A_1  D_1  S_1  
     e( 28 - 29) =     36.32095  eV     2   --> B_1  D_3  S_3  
     e( 28 - 29) =     36.32095  eV     2   --> B_2  D_4  S_4  
     e( 30 - 30) =     37.36383  eV     1   --> A_1  D_1  S_1  
     e( 31 - 31) =     37.77928  eV     1   --> A_1  D_1  S_1  
     e( 32 - 32) =     39.09511  eV     1   --> A_1  D_1  S_1  

 **************************************************************************

 **************************************************************************

                    xk=(  -0.25000,   0.00000,   0.00000  )

     Band symmetry, C_2v (mm2)  point group:

     e(  1 -  1) =     -6.73239  eV     1   --> A_1  D_1  S_1  
     e(  2 -  2) =      2.99019  eV     1   --> A_1  D_1  S_1  
     e(  3 -  4) =      4.23165  eV     2   --> B_1  D_3  S_3  
     e(  3 -  4) =      4.23165  eV     2   --> B_2  D_4  S_4  
     e(  5 -  5) =      6.90076  eV     1   --> A_1  D_1  S_1  
     e(  6 -  6) =      7.65056  eV     1   --> A_1  D_1  S_1  
     e(  7 -  8) =      8.88915  eV     2   --> B_1  D_3  S_3  
     e(  7 -  8) =      8.88915  eV     2   --> B_2  D_4  S_4  
     e(  9 -  9) =     11.91281  eV     1   --> A_1  D_1  S_1  
     e( 10 - 10) =     12.15879  eV     1   --> A_1  D_1  S_1  
     e( 11 - 11) =     14.20339  eV     1   --> A_2  D_2  S_2  
     e( 12 - 13) =     15.37537  eV     2   --> B_1  D_3  S_3  
     e( 12 - 13) =     15.37537  eV     2   --> B_2  D_4  S_4  
     e( 14 - 14) =     16.20145  eV     1   --> A_1  D_1  S_1  
     e( 15 - 15) =     19.59531  eV     1   --> A_1  D_1  S_1  
     e( 16 - 17) =     24.97938  eV     2   --> B_1  D_3  S_3  
     e( 16 - 17) =     24.97938  eV     2   --> B_2  D_4  S_4  
     e( 18 - 18) =     25.71617  eV     1   --> A_2  D_2  S_2  
     e( 19 - 19) =     26.14824  eV     1   --> A_1  D_1  S_1  
     e( 20 - 21) =     29.02202  eV     2   --> B_1  D_3  S_3  
     e( 20 - 21) =     29.02202  eV     2   --> B_2  D_4  S_4  
     e( 22 - 22) =     29.08167  eV     1   --> A_1  D_1  S_1  
     e( 23 - 23) =     31.26947  eV     1   --> A_1  D_1  S_1  
     e( 24 - 25) =     32.99135  eV     2   --> B_1  D_3  S_3  
     e( 24 - 25) =     32.99135  eV     2   --> B_2  D_4  S_4  
     e( 26 - 26) =     33.46770  eV     1   --> A_2  D_2  S_2  
     e( 27 - 27) =     35.66946  eV     1   --> A_1  D_1  S_1  
     e( 28 - 29) =     35.99587  eV     2   --> B_1  D_3  S_3  
     e( 28 - 29) =     35.99587  eV     2   --> B_2  D_4  S_4  
     e( 30 - 30) =     37.03255  eV     1   --> A_1  D_1  S_1  
     e( 31 - 31) =     37.70388  eV     1   --> A_1  D_1  S_1  
     e( 32 - 32) =     39.05548  eV     1   --> A_1  D_1  S_1  

 **************************************************************************

 **************************************************************************

                    xk=(  -0.26667,   0.00000,   0.00000  )

     Band symmetry, C_2v (mm2)  point group:

     e(  1 -  1) =     -6.70201  eV     1   --> A_1  D_1  S_1  
     e(  2 -  2) =      2.84422  eV     1   --> A_1  D_1  S_1  
     e(  3 -  4) =      4.15788  eV     2   --> B_1  D_3  S_3  
     e(  3 -  4) =      4.15788  eV     2   --> B_2  D_4  S_4  
     e(  5 -  5) =      6.88225  eV     1   --> A_1  D_1  S_1  
     e(  6 -  6) =      7.71424  eV     1   --> A_1  D_1  S_1  
     e(  7 -  8) =      9.00411  eV     2   --> B_1  D_3  S_3  
     e(  7 -  8) =      9.00411  eV     2   --> B_2  D_4  S_4  
     e(  9 -  9) =     11.80741  eV     1   --> A_1  D_1  S_1  
     e( 10 - 10) =     12.28461  eV     1   --> A_1  D_1  S_1  
     e( 11 - 11) =     14.23588  eV     1   --> A_2  D_2  S_2  
     e( 12 - 13) =     15.44148  eV     2   --> B_1  D_3  S_3  
     e( 12 - 13) =     15.44148  eV     2   --> B_2  D_4  S_4  
     e( 14 - 14) =     16.27527  eV     1   --> A_1  D_1  S_1  
     e( 15 - 15) =     19.84450  eV     1   --> A_1  D_1  S_1  
     e( 16 - 17) =     24.74033  eV     2   --> B_1  D_3  S_3  
     e( 16 - 17) =     24.74033  eV     2   --> B_2  D_4  S_4  
     e( 18 - 18) =     25.49214  eV     1   --> A_2  D_2  S_2  
     e( 19 - 19) =     25.95127  eV     1   --> A_1  D_1  S_1  
     e( 20 - 21) =     29.05529  eV     2   --> B_1  D_3  S_3  
     e( 20 - 21) =     29.05529  eV     2   --> B_2  D_4  S_4  
     e( 22 - 22) =     29.11142  eV     1   --> A_1  D_1  S_1  
     e( 23 - 23) =     31.35864  eV     1   --> A_1  D_1  S_1  
     e( 24 - 25) =     33.27503  eV     2   --> B_1  D_3  S_3  
     e( 24 - 25) =     33.27503  eV     2   --> B_2  D_4  S_4  
     e( 26 - 26) =     33.75289  eV     1   --> A_2  D_2  S_2  
     e( 27 - 27) =     35.42693  eV     1   --> A_1  D_1  S_1  
     e( 28 - 29) =     35.67310  eV     2   --> B_1  D_3  S_3  
     e( 28 - 29) =     35.67310  eV     2   --> B_2  D_4  S_4  
     e( 30 - 30) =     36.69379  eV     1   --> A_1  D_1  S_1  
     e( 31 - 31) =     37.64426  eV     1   --> A_1  D_1  S_1  
     e( 32 - 32) =     39.04170  eV     1   --> A_1  D_1  S_1  

 **************************************************************************

 **************************************************************************

                    xk=(  -0.28333,   0.00000,   0.00000  )

     Band symmetry, C_2v (mm2)  point group:

     e(  1 -  1) =     -6.66971  eV     1   --> A_1  D_1  S_1  
     e(  2 -  2) =      2.69860  eV     1   --> A_1  D_1  S_1  
     e(  3 -  4) =      4.08380  eV     2   --> B_1  D_3  S_3  
     e(  3 -  4) =      4.08380  eV     2   --> B_2  D_4  S_4  
     e(  5 -  5) =      6.85004  eV     1   --> A_1  D_1  S_1  
     e(  6 -  6) =      7.78358  eV     1   --> A_1  D_1  S_1  
     e(  7 -  8) =      9.12189  eV     2   --> B_1  D_3  S_3  
     e(  7 -  8) =      9.12189  eV     2   --> B_2  D_4  S_4  
     e(  9 -  9) =     11.70643  eV     1   --> A_1  D_1  S_1  
     e( 10 - 10) =     12.42157  eV     1   --> A_1  D_1  S_1  
     e( 11 - 11) =     14.27046  eV     1   --> A_2  D_2  S_2  
     e( 12 - 13) =     15.51194  eV     2   --> B_1  D_3  S_3  
     e( 12 - 13) =     15.51194  eV     2   --> B_2  D_4  S_4  
     e( 14 - 14) =     16.34939  eV     1   --> A_1  D_1  S_1  
     e( 15 - 15) =     20.10081  eV     1   --> A_1  D_1  S_1  
     e( 16 - 17) =     24.50308  eV     2   --> B_1  D_3  S_3  
     e( 16 - 17) =     24.50308  eV     2   --> B_2  D_4  S_4  
     e( 18 - 18) =     25.27014  eV     1   --> A_2  D_2  S_2  
     e( 19 - 19) =     25.75419  eV     1   --> A_1  D_1  S_1  
     e( 20 - 21) =     29.09063  eV     2   --> B_1  D_3  S_3  
     e( 20 - 21) =     29.09063  eV     2   --> B_2  D_4  S_4  
     e( 22 - 22) =     29.14310  eV     1   --> A_1  D_1  S_1  
     e( 23 - 23) =     31.44165  eV     1   --> A_1  D_1  S_1  
     e( 24 - 25) =     33.55367  eV     2   --> B_1  D_3  S_3  
     e( 24 - 25) =     33.55367  eV     2   --> B_2  D_4  S_4  
     e( 26 - 26) =     34.03958  eV     1   --> A_2  D_2  S_2  
     e( 27 - 27) =     35.16776  eV     1   --> A_1  D_1  S_1  
     e( 28 - 29) =     35.35637  eV     2   --> B_1  D_3  S_3  
     e( 28 - 29) =     35.35637  eV     2   --> B_2  D_4  S_4  
     e( 30 - 30) =     36.35246  eV     1   --> A_1  D_1  S_1  
     e( 31 - 31) =     37.58504  eV     1   --> A_1  D_1  S_1  
     e( 32 - 32) =     39.05559  eV     1   --> A_1  D_1  S_1  

 **************************************************************************

 **************************************************************************

                    xk=(  -0.30000,   0.00000,   0.00000  )

     Band symmetry, C_2v (mm2)  point group:

     e(  1 -  1) =     -6.63553  eV     1   --> A_1  D_1  S_1  
     e(  2 -  2) =      2.55337  eV     1   --> A_1  D_1  S_1  
     e(  3 -  4) =      4.00968  eV     2   --> B_1  D_3  S_3  
     e(  3 -  4) =      4.00968  eV     2   --> B_2  D_4  S_4  
     e(  5 -  5) =      6.80905  eV     1   --> A_1  D_1  S_1  
     e(  6 -  6) =      7.85262  eV     1   --> A_1  D_1  S_1  
     e(  7 -  8) =      9.24220  eV     2   --> B_1  D_3  S_3  
     e(  7 -  8) =      9.24220  eV     2   --> B_2  D_4  S_4  
     e(  9 -  9) =     11.61651  eV     1   --> A_1  D_1  S_1  
     e( 10 - 10) =     12.56414  eV     1   --> A_1  D_1  S_1  
     e( 11 - 11) =     14.30715  eV     1   --> A_2  D_2  S_2  
     e( 12 - 13) =     15.58677  eV     2   --> B_1  D_3  S_3  
     e( 12 - 13) =     15.58677  eV     2   --> B_2  D_4  S_4  
     e( 14 - 14) =     16.42434  eV     1   --> A_1  D_1  S_1  
     e( 15 - 15) =     20.36354  eV     1   --> A_1  D_1  S_1  
     e( 16 - 17) =     24.26764  eV     2   --> B_1  D_3  S_3  
     e( 16 - 17) =     24.26764  eV     2   --> B_2  D_4  S_4  
     e( 18 - 18) =     25.05021  eV     1   --> A_2  D_2  S_2  
     e( 19 - 19) =     25.55729  eV     1   --> A_1  D_1  S_1  
     e( 20 - 21) =     29.12803  eV     2   --> B_1  D_3  S_3  
     e( 20 - 21) =     29.12803  eV     2   --> B_2  D_4  S_4  
     e( 22 - 22) =     29.17671  eV     1   --> A_1  D_1  S_1  
     e( 23 - 23) =     31.51771  eV     1   --> A_1  D_1  S_1  
     e( 24 - 25) =     33.81770  eV     2   --> B_1  D_3  S_3  
     e( 24 - 25) =     33.81770  eV     2   --> B_2  D_4  S_4  
     e( 26 - 26) =     34.32762  eV     1   --> A_2  D_2  S_2  
     e( 27 - 27) =     34.89911  eV     1   --> A_1  D_1  S_1  
     e( 28 - 29) =     35.05555  eV     2   --> B_1  D_3  S_3  
     e( 28 - 29) =     35.05555  eV     2   --> B_2  D_4  S_4  
     e( 30 - 30) =     36.01037  eV     1   --> A_1  D_1  S_1  
     e( 31 - 31) =     37.51825  eV     1   --> A_1  D_1  S_1  
     e( 32 - 32) =     38.96282  eV     1   -->   ?

 **************************************************************************

 **************************************************************************

                    xk=(  -0.31667,   0.00000,   0.00000  )

     Band symmetry, C_2v (mm2)  point group:

     e(  1 -  1) =     -6.59946  eV     1   --> A_1  D_1  S_1  
     e(  2 -  2) =      2.40859  eV     1   --> A_1  D_1  S_1  
     e(  3 -  4) =      3.93578  eV     2   --> B_1  D_3  S_3  
     e(  3 -  4) =      3.93578  eV     2   --> B_2  D_4  S_4  
     e(  5 -  5) =      6.76260  eV     1   --> A_1  D_1  S_1  
     e(  6 -  6) =      7.91687  eV     1   --> A_1  D_1  S_1  
     e(  7 -  8) =      9.36477  eV     2   --> B_1  D_3  S_3  
     e(  7 -  8) =      9.36477  eV     2   --> B_2  D_4  S_4  
     e(  9 -  9) =     11.54016  eV     1   --> A_1  D_1  S_1  
     e( 10 - 10) =     12.71098  eV     1   --> A_1  D_1  S_1  
     e( 11 - 11) =     14.34594  eV     1   --> A_2  D_2  S_2  
     e( 12 - 13) =     15.66598  eV     2   --> B_1  D_3  S_3  
     e( 12 - 13) =     15.66598  eV     2   --> B_2  D_4  S_4  
     e( 14 - 14) =     16.50055  eV     1   --> A_1  D_1  S_1  
     e( 15 - 15) =     20.63209  eV     1   --> A_1  D_1  S_1  
     e( 16 - 17) =     24.03403  eV     2   --> B_1  D_3  S_3  
     e( 16 - 17) =     24.03403  eV     2   --> B_2  D_4  S_4  
     e( 18 - 18) =     24.83237  eV     1   --> A_2  D_2  S_2  
     e( 19 - 19) =     25.36083  eV     1   --> A_1  D_1  S_1  
     e( 20 - 21) =     29.16747  eV     2   --> B_1  D_3  S_3  
     e( 20 - 21) =     29.16747  eV     2   --> B_2  D_4  S_4  
     e( 22 - 22) =     29.21225  eV     1   --> A_1  D_1  S_1  
     e( 23 - 23) =     31.58566  eV     1   --> A_1  D_1  S_1  
     e( 24 - 25) =     34.03037  eV     2   --> B_1  D_3  S_3  
     e( 24 - 25) =     34.03037  eV     2   --> B_2  D_4  S_4  
     e( 26 - 26) =     34.61685  eV     1   --> A_2  D_2  S_2  
     e( 27 - 27) =     34.62659  eV     1   --> A_1  D_1  S_1  
     e( 28 - 29) =     34.80758  eV     2   --> B_1  D_3  S_3  
     e( 28 - 29) =     34.80758  eV     2   --> B_2  D_4  S_4  
     e( 30 - 30) =     35.66847  eV     1   --> A_1  D_1  S_1  
     e( 31 - 31) =     37.44089  eV     1   --> A_1  D_1  S_1  
     e( 32 - 32) =     38.81748  eV     1   -->   ?

 **************************************************************************

 **************************************************************************

                    xk=(  -0.33333,   0.00000,   0.00000  )

     Band symmetry, C_2v (mm2)  point group:

     e(  1 -  1) =     -6.56153  eV     1   --> A_1  D_1  S_1  
     e(  2 -  2) =      2.26428  eV     1   --> A_1  D_1  S_1  
     e(  3 -  4) =      3.86229  eV     2   --> B_1  D_3  S_3  
     e(  3 -  4) =      3.86229  eV     2   --> B_2  D_4  S_4  
     e(  5 -  5) =      6.71288  eV     1   --> A_1  D_1  S_1  
     e(  6 -  6) =      7.97301  eV     1   --> A_1  D_1  S_1  
     e(  7 -  8) =      9.48937  eV     2   --> B_1  D_3  S_3  
     e(  7 -  8) =      9.48937  eV     2   --> B_2  D_4  S_4  
     e(  9 -  9) =     11.47911  eV     1   --> A_1  D_1  S_1  
     e( 10 - 10) =     12.86149  eV     1   --> A_1  D_1  S_1  
     e( 11 - 11) =     14.38684  eV     1   --> A_2  D_2  S_2  
     e( 12 - 13) =     15.74957  eV     2   --> B_1  D_3  S_3  
     e( 12 - 13) =     15.74957  eV     2   --> B_2  D_4  S_4  
     e( 14 - 14) =     16.57841  eV     1   --> A_1  D_1  S_1  
     e( 15 - 15) =     20.90591  eV     1   --> A_1  D_1  S_1  
     e( 16 - 17) =     23.80226  eV     2   --> B_1  D_3  S_3  
     e( 16 - 17) =     23.80226  eV     2   --> B_2  D_4  S_4  
     e( 18 - 18) =     24.61662  eV     1   --> A_2  D_2  S_2  
     e( 19 - 19) =     25.16509  eV     1   --> A_1  D_1  S_1  
     e( 20 - 21) =     29.20893  eV     2   --> B_1  D_3  S_3  
     e( 20 - 21) =     29.20893  eV     2   --> B_2  D_4  S_4  
     e( 22 - 22) =     29.24971  eV     1   --> A_1  D_1  S_1  
     e( 23 - 23) =     31.64373  eV     1   --> A_1  D_1  S_1  
     e( 24 - 25) =     34.05988  eV     2   --> B_1  D_3  S_3  
     e( 24 - 25) =     34.05988  eV     2   --> B_2  D_4  S_4  
     e( 26 - 26) =     34.35502  eV     1   --> A_1  D_1  S_1  
     e( 27 - 28) =     34.74438  eV     2   --> B_1  D_3  S_3  
     e( 27 - 28) =     34.74438  eV     2   --> B_2  D_4  S_4  
     e( 29 - 29) =     34.90704  eV     1   --> A_2  D_2  S_2  
     e( 30 - 30) =     35.32738  eV     1   --> A_1  D_1  S_1  
     e( 31 - 31) =     37.35292  eV     1   --> A_1  D_1  S_1  
     e( 32 - 32) =     38.67347  eV     1   -->   ?

 **************************************************************************

 **************************************************************************

                    xk=(  -0.35000,   0.00000,   0.00000  )

     Band symmetry, C_2v (mm2)  point group:

     e(  1 -  1) =     -6.52174  eV     1   --> A_1  D_1  S_1  
     e(  2 -  2) =      2.12049  eV     1   --> A_1  D_1  S_1  
     e(  3 -  4) =      3.78939  eV     2   --> B_1  D_3  S_3  
     e(  3 -  4) =      3.78939  eV     2   --> B_2  D_4  S_4  
     e(  5 -  5) =      6.66134  eV     1   --> A_1  D_1  S_1  
     e(  6 -  6) =      8.01855  eV     1   --> A_1  D_1  S_1  
     e(  7 -  8) =      9.61579  eV     2   --> B_1  D_3  S_3  
     e(  7 -  8) =      9.61579  eV     2   --> B_2  D_4  S_4  
     e(  9 -  9) =     11.43477  eV     1   --> A_1  D_1  S_1  
     e( 10 - 10) =     13.01527  eV     1   --> A_1  D_1  S_1  
     e( 11 - 11) =     14.42985  eV     1   --> A_2  D_2  S_2  
     e( 12 - 13) =     15.83755  eV     2   --> B_1  D_3  S_3  
     e( 12 - 13) =     15.83755  eV     2   --> B_2  D_4  S_4  
     e( 14 - 14) =     16.65824  eV     1   --> A_1  D_1  S_1  
     e( 15 - 15) =     21.18454  eV     1   --> A_1  D_1  S_1  
     e( 16 - 17) =     23.57235  eV     2   --> B_1  D_3  S_3  
     e( 16 - 17) =     23.57235  eV     2   --> B_2  D_4  S_4  
     e( 18 - 18) =     24.40299  eV     1   --> A_2  D_2  S_2  
     e( 19 - 19) =     24.97033  eV     1   --> A_1  D_1  S_1  
     e( 20 - 21) =     29.25238  eV     2   --> B_1  D_3  S_3  
     e( 20 - 21) =     29.25238  eV     2   --> B_2  D_4  S_4  
     e( 22 - 22) =     29.28909  eV     1   --> A_1  D_1  S_1  
     e( 23 - 23) =     31.68917  eV     1   --> A_1  D_1  S_1  
     e( 24 - 25) =     33.85529  eV     2   --> B_1  D_3  S_3  
     e( 24 - 25) =     33.85529  eV     2   --> B_2  D_4  S_4  
     e( 26 - 26) =     34.08918  eV     1   --> A_1  D_1  S_1  
     e( 27 - 28) =     34.91690  eV     2   --> B_1  D_3  S_3  
     e( 27 - 28) =     34.91690  eV     2   --> B_2  D_4  S_4  
     e( 29 - 29) =     34.98766  eV     1   --> A_1  D_1  S_1  
     e( 30 - 30) =     35.19791  eV     1   --> A_2  D_2  S_2  
     e( 31 - 31) =     37.25572  eV     1   --> A_1  D_1  S_1  
     e( 32 - 32) =     38.53090  eV     1   -->   ?

 **************************************************************************

 **************************************************************************

                    xk=(  -0.36667,   0.00000,   0.00000  )

     Band symmetry, C_2v (mm2)  point group:

     e(  1 -  1) =     -6.48011  eV     1   --> A_1  D_1  S_1  
     e(  2 -  2) =      1.97723  eV     1   --> A_1  D_1  S_1  
     e(  3 -  4) =      3.71726  eV     2   --> B_1  D_3  S_3  
     e(  3 -  4) =      3.71726  eV     2   --> B_2  D_4  S_4  
     e(  5 -  5) =      6.60895  eV     1   --> A_1  D_1  S_1  
     e(  6 -  6) =      8.05173  eV     1   --> A_1  D_1  S_1  
     e(  7 -  8) =      9.74385  eV     2   --> B_1  D_3  S_3  
     e(  7 -  8) =      9.74385  eV     2   --> B_2  D_4  S_4  
     e(  9 -  9) =     11.40819  eV     1   --> A_1  D_1  S_1  
     e( 10 - 10) =     13.17201  eV     1   --> A_1  D_1  S_1  
     e( 11 - 11) =     14.47496  eV     1   --> A_2  D_2  S_2  
     e( 12 - 13) =     15.92993  eV     2   --> B_1  D_3  S_3  
     e( 12 - 13) =     15.92993  eV     2   --> B_2  D_4  S_4  
     e( 14 - 14) =     16.74033  eV     1   --> A_1  D_1  S_1  
     e( 15 - 15) =     21.46755  eV     1   --> A_1  D_1  S_1  
     e( 16 - 17) =     23.34432  eV     2   --> B_1  D_3  S_3  
     e( 16 - 17) =     23.34432  eV     2   --> B_2  D_4  S_4  
     e( 18 - 18) =     24.19148  eV     1   --> A_2  D_2  S_2  
     e( 19 - 19) =     24.77683  eV     1   --> A_1  D_1  S_1  
     e( 20 - 21) =     29.29779  eV     2   --> B_1  D_3  S_3  
     e( 20 - 21) =     29.29779  eV     2   --> B_2  D_4  S_4  
     e( 22 - 22) =     29.33037  eV     1   --> A_1  D_1  S_1  
     e( 23 - 23) =     31.71782  eV     1   --> A_1  D_1  S_1  
     e( 24 - 25) =     33.56798  eV     2   --> B_1  D_3  S_3  
     e( 24 - 25) =     33.56798  eV     2   --> B_2  D_4  S_4  
     e( 26 - 26) =     33.83447  eV     1   --> A_1  D_1  S_1  
     e( 27 - 27) =     34.64996  eV     1   --> A_1  D_1  S_1  
     e( 28 - 29) =     35.17365  eV     2   --> B_1  D_3  S_3  
     e( 28 - 29) =     35.17365  eV     2   --> B_2  D_4  S_4  
     e( 30 - 30) =     35.48908  eV     1   --> A_2  D_2  S_2  
     e( 31 - 31) =     37.15110  eV     1   --> A_1  D_1  S_1  
     e( 32 - 32) =     38.38998  eV     1   -->   ?

 **************************************************************************

 **************************************************************************

                    xk=(  -0.38333,   0.00000,   0.00000  )

     Band symmetry, C_2v (mm2)  point group:

     e(  1 -  1) =     -6.43667  eV     1   --> A_1  D_1  S_1  
     e(  2 -  2) =      1.83456  eV     1   --> A_1  D_1  S_1  
     e(  3 -  4) =      3.64603  eV     2   --> B_1  D_3  S_3  
     e(  3 -  4) =      3.64603  eV     2   --> B_2  D_4  S_4  
     e(  5 -  5) =      6.55640  eV     1   --> A_1  D_1  S_1  
     e(  6 -  6) =      8.07145  eV     1   --> A_1  D_1  S_1  
     e(  7 -  8) =      9.87338  eV     2   --> B_1  D_3  S_3  
     e(  7 -  8) =      9.87338  eV     2   --> B_2  D_4  S_4  
     e(  9 -  9) =     11.39997  eV     1   --> A_1  D_1  S_1  
     e( 10 - 10) =     13.33142  eV     1   --> A_1  D_1  S_1  
     e( 11 - 11) =     14.52217  eV     1   --> A_2  D_2  S_2  
     e( 12 - 13) =     16.02672  eV     2   --> B_1  D_3  S_3  
     e( 12 - 13) =     16.02672  eV     2   --> B_2  D_4  S_4  
     e( 14 - 14) =     16.82491  eV     1   --> A_1  D_1  S_1  
     e( 15 - 15) =     21.75451  eV     1   --> A_1  D_1  S_1  
     e( 16 - 17) =     23.11817  eV     2   --> B_1  D_3  S_3  
     e( 16 - 17) =     23.11817  eV     2   --> B_2  D_4  S_4  
     e( 18 - 18) =     23.98211  eV     1   --> A_2  D_2  S_2  
     e( 19 - 19) =     24.58491  eV     1   --> A_1  D_1  S_1  
     e( 20 - 21) =     29.34511  eV     2   --> B_1  D_3  S_3  
     e( 20 - 21) =     29.34511  eV     2   --> B_2  D_4  S_4  
     e( 22 - 22) =     29.37354  eV     1   --> A_1  D_1  S_1  
     e( 23 - 23) =     31.72354  eV     1   --> A_1  D_1  S_1  
     e( 24 - 25) =     33.25868  eV     2   --> B_1  D_3  S_3  
     e( 24 - 25) =     33.25868  eV     2   --> B_2  D_4  S_4  
     e( 26 - 26) =     33.59745  eV     1   --> A_1  D_1  S_1  
     e( 27 - 27) =     34.31526  eV     1   --> A_1  D_1  S_1  
     e( 28 - 29) =     35.45359  eV     2   --> B_1  D_3  S_3  
     e( 28 - 29) =     35.45359  eV     2   --> B_2  D_4  S_4  
     e( 30 - 30) =     35.78005  eV     1   --> A_2  D_2  S_2  
     e( 31 - 31) =     37.04075  eV     1   --> A_1  D_1  S_1  
     e( 32 - 32) =     38.25108  eV     1   -->   ?

 **************************************************************************

 **************************************************************************

                    xk=(  -0.40000,   0.00000,   0.00000  )

     Band symmetry, C_2v (mm2)  point group:

     e(  1 -  1) =     -6.39142  eV     1   --> A_1  D_1  S_1  
     e(  2 -  2) =      1.69250  eV     1   --> A_1  D_1  S_1  
     e(  3 -  4) =      3.57584  eV     2   --> B_1  D_3  S_3  
     e(  3 -  4) =      3.57584  eV     2   --> B_2  D_4  S_4  
     e(  5 -  5) =      6.50419  eV     1   --> A_1  D_1  S_1  
     e(  6 -  6) =      8.07726  eV     1   --> A_1  D_1  S_1  
     e(  7 -  8) =     10.00423  eV     2   --> B_1  D_3  S_3  
     e(  7 -  8) =     10.00423  eV     2   --> B_2  D_4  S_4  
     e(  9 -  9) =     11.41023  eV     1   --> A_1  D_1  S_1  
     e( 10 - 10) =     13.49325  eV     1   --> A_1  D_1  S_1  
     e( 11 - 11) =     14.57150  eV     1   --> A_2  D_2  S_2  
     e( 12 - 13) =     16.12791  eV     2   --> B_1  D_3  S_3  
     e( 12 - 13) =     16.12791  eV     2   --> B_2  D_4  S_4  
     e( 14 - 14) =     16.91220  eV     1   --> A_1  D_1  S_1  
     e( 15 - 15) =     22.04495  eV     1   --> A_1  D_1  S_1  
     e( 16 - 17) =     22.89393  eV     2   --> B_1  D_3  S_3  
     e( 16 - 17) =     22.89393  eV     2   --> B_2  D_4  S_4  
     e( 18 - 18) =     23.77488  eV     1   --> A_2  D_2  S_2  
     e( 19 - 19) =     24.39495  eV     1   --> A_1  D_1  S_1  
     e( 20 - 21) =     29.39432  eV     2   --> B_1  D_3  S_3  
     e( 20 - 21) =     29.39432  eV     2   --> B_2  D_4  S_4  
     e( 22 - 22) =     29.41858  eV     1   --> A_1  D_1  S_1  
     e( 23 - 23) =     31.69806  eV     1   --> A_1  D_1  S_1  
     e( 24 - 25) =     32.94212  eV     2   --> B_1  D_3  S_3  
     e( 24 - 25) =     32.94212  eV     2   --> B_2  D_4  S_4  
     e( 26 - 26) =     33.38551  eV     1   --> A_1  D_1  S_1  
     e( 27 - 27) =     33.98558  eV     1   --> A_1  D_1  S_1  
     e( 28 - 29) =     35.74133  eV     2   --> B_1  D_3  S_3  
     e( 28 - 29) =     35.74133  eV     2   --> B_2  D_4  S_4  
     e( 30 - 30) =     36.07012  eV     1   --> A_2  D_2  S_2  
     e( 31 - 31) =     36.92616  eV     1   --> A_1  D_1  S_1  
     e( 32 - 32) =     38.11491  eV     1   -->   ?

 **************************************************************************

 **************************************************************************

                    xk=(  -0.41667,   0.00000,   0.00000  )

     Band symmetry, C_2v (mm2)  point group:

     e(  1 -  1) =     -6.34440  eV     1   --> A_1  D_1  S_1  
     e(  2 -  2) =      1.55108  eV     1   --> A_1  D_1  S_1  
     e(  3 -  4) =      3.50679  eV     2   --> B_1  D_3  S_3  
     e(  3 -  4) =      3.50679  eV     2   --> B_2  D_4  S_4  
     e(  5 -  5) =      6.45269  eV     1   --> A_1  D_1  S_1  
     e(  6 -  6) =      8.06934  eV     1   --> A_1  D_1  S_1  
     e(  7 -  8) =     10.13627  eV     2   --> B_1  D_3  S_3  
     e(  7 -  8) =     10.13627  eV     2   --> B_2  D_4  S_4  
     e(  9 -  9) =     11.43852  eV     1   --> A_1  D_1  S_1  
     e( 10 - 10) =     13.65723  eV     1   --> A_1  D_1  S_1  
     e( 11 - 11) =     14.62294  eV     1   --> A_2  D_2  S_2  
     e( 12 - 13) =     16.23352  eV     2   --> B_1  D_3  S_3  
     e( 12 - 13) =     16.23352  eV     2   --> B_2  D_4  S_4  
     e( 14 - 14) =     17.00238  eV     1   --> A_1  D_1  S_1  
     e( 15 - 15) =     22.33827  eV     1   --> A_1  D_1  S_1  
     e( 16 - 17) =     22.67161  eV     2   --> B_1  D_3  S_3  
     e( 16 - 17) =     22.67161  eV     2   --> B_2  D_4  S_4  
     e( 18 - 18) =     23.56980  eV     1   --> A_2  D_2  S_2  
     e( 19 - 19) =     24.20754  eV     1   --> A_1  D_1  S_1  
     e( 20 - 21) =     29.44534  eV     2   --> B_1  D_3  S_3  
     e( 20 - 21) =     29.44534  eV     2   --> B_2  D_4  S_4  
     e( 22 - 22) =     29.46543  eV     1   --> A_1  D_1  S_1  
     e( 23 - 23) =     31.63224  eV     1   --> A_1  D_1  S_1  
     e( 24 - 25) =     32.62303  eV     2   --> B_1  D_3  S_3  
     e( 24 - 25) =     32.62303  eV     2   --> B_2  D_4  S_4  
     e( 26 - 26) =     33.20333  eV     1   --> A_1  D_1  S_1  
     e( 27 - 27) =     33.66626  eV     1   --> A_1  D_1  S_1  
     e( 28 - 29) =     36.03083  eV     2   --> B_1  D_3  S_3  
     e( 28 - 29) =     36.03083  eV     2   --> B_2  D_4  S_4  
     e( 30 - 30) =     36.35828  eV     1   --> A_2  D_2  S_2  
     e( 31 - 31) =     36.80854  eV     1   --> A_1  D_1  S_1  
     e( 32 - 32) =     37.98281  eV     1   -->   ?

 **************************************************************************

 **************************************************************************

                    xk=(  -0.43333,   0.00000,   0.00000  )

     Band symmetry, C_2v (mm2)  point group:

     e(  1 -  1) =     -6.29562  eV     1   --> A_1  D_1  S_1  
     e(  2 -  2) =      1.41034  eV     1   --> A_1  D_1  S_1  
     e(  3 -  4) =      3.43899  eV     2   --> B_1  D_3  S_3  
     e(  3 -  4) =      3.43899  eV     2   --> B_2  D_4  S_4  
     e(  5 -  5) =      6.40220  eV     1   --> A_1  D_1  S_1  
     e(  6 -  6) =      8.04841  eV     1   --> A_1  D_1  S_1  
     e(  7 -  8) =     10.26936  eV     2   --> B_1  D_3  S_3  
     e(  7 -  8) =     10.26936  eV     2   --> B_2  D_4  S_4  
     e(  9 -  9) =     11.48395  eV     1   --> A_1  D_1  S_1  
     e( 10 - 10) =     13.82312  eV     1   --> A_1  D_1  S_1  
     e( 11 - 11) =     14.67650  eV     1   --> A_2  D_2  S_2  
     e( 12 - 13) =     16.34353  eV     2   --> B_1  D_3  S_3  
     e( 12 - 13) =     16.34353  eV     2   --> B_2  D_4  S_4  
     e( 14 - 14) =     17.09561  eV     1   --> A_1  D_1  S_1  
     e( 15 - 16) =     22.45123  eV     2   --> B_1  D_3  S_3  
     e( 15 - 16) =     22.45123  eV     2   --> B_2  D_4  S_4  
     e( 17 - 17) =     22.63339  eV     1   --> A_1  D_1  S_1  
     e( 18 - 18) =     23.36689  eV     1   --> A_2  D_2  S_2  
     e( 19 - 19) =     24.02371  eV     1   --> A_1  D_1  S_1  
     e( 20 - 21) =     29.49810  eV     2   --> B_1  D_3  S_3  
     e( 20 - 21) =     29.49810  eV     2   --> B_2  D_4  S_4  
     e( 22 - 22) =     29.51403  eV     1   --> A_1  D_1  S_1  
     e( 23 - 23) =     31.51969  eV     1   --> A_1  D_1  S_1  
     e( 24 - 25) =     32.30340  eV     2   --> B_1  D_3  S_3  
     e( 24 - 25) =     32.30340  eV     2   --> B_2  D_4  S_4  
     e( 26 - 26) =     33.03914  eV     1   --> A_1  D_1  S_1  
     e( 27 - 27) =     33.37623  eV     1   --> A_1  D_1  S_1  
     e( 28 - 29) =     36.31722  eV     2   --> B_1  D_3  S_3  
     e( 28 - 29) =     36.31722  eV     2   --> B_2  D_4  S_4  
     e( 30 - 30) =     36.64302  eV     1   --> A_2  D_2  S_2  
     e( 31 - 31) =     36.68888  eV     1   --> A_1  D_1  S_1  
     e( 32 - 32) =     37.85767  eV     1   -->   ?

 **************************************************************************

 **************************************************************************

                    xk=(  -0.45000,   0.00000,   0.00000  )

     Band symmetry, C_2v (mm2)  point group:

     e(  1 -  1) =     -6.24511  eV     1   --> A_1  D_1  S_1  
     e(  2 -  2) =      1.27033  eV     1   --> A_1  D_1  S_1  
     e(  3 -  4) =      3.37253  eV     2   --> B_1  D_3  S_3  
     e(  3 -  4) =      3.37253  eV     2   --> B_2  D_4  S_4  
     e(  5 -  5) =      6.35293  eV     1   --> A_1  D_1  S_1  
     e(  6 -  6) =      8.01558  eV     1   --> A_1  D_1  S_1  
     e(  7 -  8) =     10.40341  eV     2   --> B_1  D_3  S_3  
     e(  7 -  8) =     10.40341  eV     2   --> B_2  D_4  S_4  
     e(  9 -  9) =     11.54522  eV     1   --> A_1  D_1  S_1  
     e( 10 - 10) =     13.99065  eV     1   --> A_1  D_1  S_1  
     e( 11 - 11) =     14.73216  eV     1   --> A_2  D_2  S_2  
     e( 12 - 13) =     16.45794  eV     2   --> B_1  D_3  S_3  
     e( 12 - 13) =     16.45794  eV     2   --> B_2  D_4  S_4  
     e( 14 - 14) =     17.19205  eV     1   --> A_1  D_1  S_1  
     e( 15 - 16) =     22.23280  eV     2   --> B_1  D_3  S_3  
     e( 15 - 16) =     22.23280  eV     2   --> B_2  D_4  S_4  
     e( 17 - 17) =     22.92756  eV     1   --> A_1  D_1  S_1  
     e( 18 - 18) =     23.16613  eV     1   --> A_2  D_2  S_2  
     e( 19 - 19) =     23.84624  eV     1   --> A_1  D_1  S_1  
     e( 20 - 21) =     29.55248  eV     2   --> B_1  D_3  S_3  
     e( 20 - 21) =     29.55248  eV     2   --> B_2  D_4  S_4  
     e( 22 - 22) =     29.56424  eV     1   --> A_1  D_1  S_1  
     e( 23 - 23) =     31.36089  eV     1   --> A_1  D_1  S_1  
     e( 24 - 25) =     31.98428  eV     2   --> B_1  D_3  S_3  
     e( 24 - 25) =     31.98428  eV     2   --> B_2  D_4  S_4  
     e( 26 - 26) =     32.83525  eV     1   --> A_1  D_1  S_1  
     e( 27 - 27) =     33.17337  eV     1   --> A_1  D_1  S_1  
     e( 28 - 28) =     36.56800  eV     1   --> A_1  D_1  S_1  
     e( 29 - 30) =     36.59256  eV     2   --> B_1  D_3  S_3  
     e( 29 - 30) =     36.59256  eV     2   --> B_2  D_4  S_4  
     e( 31 - 31) =     36.92204  eV     1   --> A_2  D_2  S_2  
     e( 32 - 32) =     37.74637  eV     1   -->   ?

 **************************************************************************

 **************************************************************************

                    xk=(  -0.46667,   0.00000,   0.00000  )

     Band symmetry, C_2v (mm2)  point group:

     e(  1 -  1) =     -6.19290  eV     1   --> A_1  D_1  S_1  
     e(  2 -  2) =      1.13107  eV     1   --> A_1  D_1  S_1  
     e(  3 -  4) =      3.30749  eV     2   --> B_1  D_3  S_3  
     e(  3 -  4) =      3.30749  eV     2   --> B_2  D_4  S_4  
     e(  5 -  5) =      6.30507  eV     1   --> A_1  D_1  S_1  
     e(  6 -  6) =      7.97227  eV     1   --> A_1  D_1  S_1  
     e(  7 -  8) =     10.53830  eV     2   --> B_1  D_3  S_3  
     e(  7 -  8) =     10.53830  eV     2   --> B_2  D_4  S_4  
     e(  9 -  9) =     11.62081  eV     1   --> A_1  D_1  S_1  
     e( 10 - 10) =     14.15954  eV     1   --> A_1  D_1  S_1  
     e( 11 - 11) =     14.78994  eV     1   --> A_2  D_2  S_2  
     e( 12 - 13) =     16.57675  eV     2   --> B_1  D_3  S_3  
     e( 12 - 13) =     16.57675  eV     2   --> B_2  D_4  S_4  
     e( 14 - 14) =     17.29183  eV     1   --> A_1  D_1  S_1  
     e( 15 - 16) =     22.01635  eV     2   --> B_1  D_3  S_3  
     e( 15 - 16) =     22.01635  eV     2   --> B_2  D_4  S_4  
     e( 17 - 17) =     22.96754  eV     1   --> A_2  D_2  S_2  
     e( 18 - 18) =     23.20811  eV     1   --> A_1  D_1  S_1  
     e( 19 - 19) =     23.68782  eV     1   --> A_1  D_1  S_1  
     e( 20 - 21) =     29.60833  eV     2   --> B_1  D_3  S_3  
     e( 20 - 21) =     29.60833  eV     2   --> B_2  D_4  S_4  
     e( 22 - 22) =     29.61580  eV     1   --> A_1  D_1  S_1  
     e( 23 - 23) =     31.16330  eV     1   --> A_1  D_1  S_1  
     e( 24 - 25) =     31.66637  eV     2   --> B_1  D_3  S_3  
     e( 24 - 25) =     31.66637  eV     2   --> B_2  D_4  S_4  
     e( 26 - 26) =     32.55749  eV     1   --> A_1  D_1  S_1  
     e( 27 - 27) =     33.08512  eV     1   --> A_1  D_1  S_1  
     e( 28 - 28) =     36.44661  eV     1   --> A_1  D_1  S_1  
     e( 29 - 30) =     36.83708  eV     2   --> B_1  D_3  S_3  
     e( 29 - 30) =     36.83708  eV     2   --> B_2  D_4  S_4  
     e( 31 - 31) =     37.19172  eV     1   --> A_2  D_2  S_2  
     e( 32 - 32) =     37.66800  eV     1   -->   ?

 **************************************************************************

 **************************************************************************

                    xk=(  -0.48333,   0.00000,   0.00000  )

     Band symmetry, C_2v (mm2)  point group:

     e(  1 -  1) =     -6.13903  eV     1   --> A_1  D_1  S_1  
     e(  2 -  2) =      0.99262  eV     1   --> A_1  D_1  S_1  
     e(  3 -  4) =      3.24394  eV     2   --> B_1  D_3  S_3  
     e(  3 -  4) =      3.24394  eV     2   --> B_2  D_4  S_4  
     e(  5 -  5) =      6.25877  eV     1   --> A_1  D_1  S_1  
     e(  6 -  6) =      7.91998  eV     1   --> A_1  D_1  S_1  
     e(  7 -  8) =     10.67395  eV     2   --> B_1  D_3  S_3  
     e(  7 -  8) =     10.67395  eV     2   --> B_2  D_4  S_4  
     e(  9 -  9) =     11.70910  eV     1   --> A_1  D_1  S_1  
     e( 10 - 10) =     14.32950  eV     1   --> A_1  D_1  S_1  
     e( 11 - 11) =     14.84984  eV     1   --> A_2  D_2  S_2  
     e( 12 - 13) =     16.69994  eV     2   --> B_1  D_3  S_3  
     e( 12 - 13) =     16.69994  eV     2   --> B_2  D_4  S_4  
     e( 14 - 14) =     17.39506  eV     1   --> A_1  D_1  S_1  
     e( 15 - 16) =     21.80190  eV     2   --> B_1  D_3  S_3  
     e( 15 - 16) =     21.80190  eV     2   --> B_2  D_4  S_4  
     e( 17 - 17) =     22.77113  eV     1   --> A_2  D_2  S_2  
     e( 18 - 18) =     23.35965  eV     1   --> A_1  D_1  S_1  
     e( 19 - 19) =     23.66391  eV     1   --> A_1  D_1  S_1  
     e( 20 - 21) =     29.66531  eV     2   --> B_1  D_3  S_3  
     e( 20 - 21) =     29.66531  eV     2   --> B_2  D_4  S_4  
     e( 22 - 22) =     29.66821  eV     1   --> A_1  D_1  S_1  
     e( 23 - 23) =     30.93745  eV     1   --> A_1  D_1  S_1  
     e( 24 - 25) =     31.35028  eV     2   --> B_1  D_3  S_3  
     e( 24 - 25) =     31.35028  eV     2   --> B_2  D_4  S_4  
     e( 26 - 26) =     32.24877  eV     1   --> A_1  D_1  S_1  
     e( 27 - 27) =     33.05892  eV     1   --> A_1  D_1  S_1  
     e( 28 - 28) =     36.32534  eV     1   --> A_1  D_1  S_1  
     e( 29 - 30) =     36.99981  eV     2   --> B_1  D_3  S_3  
     e( 29 - 30) =     36.99981  eV     2   --> B_2  D_4  S_4  
     e( 31 - 31) =     37.44634  eV     1   --> A_2  D_2  S_2  
     e( 32 - 32) =     37.67296  eV     1   -->   ?

 **************************************************************************

 **************************************************************************

                    xk=(  -0.50000,   0.00000,   0.00000  )

     Band symmetry, C_2v (mm2)  point group:

     e(  1 -  1) =     -6.08351  eV     1   --> A_1  D_1  S_1  
     e(  2 -  2) =      0.85502  eV     1   --> A_1  D_1  S_1  
     e(  3 -  4) =      3.18196  eV     2   --> B_1  D_3  S_3  
     e(  3 -  4) =      3.18196  eV     2   --> B_2  D_4  S_4  
     e(  5 -  5) =      6.21415  eV     1   --> A_1  D_1  S_1  
     e(  6 -  6) =      7.86022  eV     1   --> A_1  D_1  S_1  
     e(  7 -  8) =     10.81025  eV     2   --> B_1  D_3  S_3  
     e(  7 -  8) =     10.81025  eV     2   --> B_2  D_4  S_4  
     e(  9 -  9) =     11.80846  eV     1   --> A_1  D_1  S_1  
     e( 10 - 10) =     14.50019  eV     1   --> A_1  D_1  S_1  
     e( 11 - 11) =     14.91186  eV     1   --> A_2  D_2  S_2  
     e( 12 - 13) =     16.82750  eV     2   --> B_1  D_3  S_3  
     e( 12 - 13) =     16.82750  eV     2   --> B_2  D_4  S_4  
     e( 14 - 14) =     17.50185  eV     1   --> A_1  D_1  S_1  
     e( 15 - 16) =     21.58947  eV     2   --> B_1  D_3  S_3  
     e( 15 - 16) =     21.58947  eV     2   --> B_2  D_4  S_4  
     e( 17 - 17) =     22.57689  eV     1   --> A_2  D_2  S_2  
     e( 18 - 18) =     23.25038  eV     1   --> A_1  D_1  S_1  
     e( 19 - 19) =     23.90636  eV     1   --> A_1  D_1  S_1  
     e( 20 - 20) =     29.72024  eV     1   --> A_1  D_1  S_1  
     e( 21 - 22) =     29.72284  eV     2   --> B_1  D_3  S_3  
     e( 21 - 22) =     29.72284  eV     2   --> B_2  D_4  S_4  
     e( 23 - 23) =     30.69360  eV     1   --> A_1  D_1  S_1  
     e( 24 - 25) =     31.03682  eV     2   --> B_1  D_3  S_3  
     e( 24 - 25) =     31.03682  eV     2   --> B_2  D_4  S_4  
     e( 26 - 26) =     31.93183  eV     1   --> A_1  D_1  S_1  
     e( 27 - 27) =     33.06330  eV     1   --> A_1  D_1  S_1  
     e( 28 - 28) =     36.20478  eV     1   --> A_1  D_1  S_1  
     e( 29 - 30) =     37.02698  eV     2   --> B_1  D_3  S_3  
     e( 29 - 30) =     37.02698  eV     2   --> B_2  D_4  S_4  
     e( 31 - 31) =     37.67715  eV     1   --> A_2  D_2  S_2  
     e( 32 - 32) =     37.81437  eV     1   -->   ?

 **************************************************************************

 **************************************************************************

                    xk=(  -0.51667,   0.00000,   0.00000  )

     Band symmetry, C_2v (mm2)  point group:

     e(  1 -  1) =     -6.02640  eV     1   --> A_1  D_1  S_1  
     e(  2 -  2) =      0.71832  eV     1   --> A_1  D_1  S_1  
     e(  3 -  4) =      3.12159  eV     2   --> B_1  D_3  S_3  
     e(  3 -  4) =      3.12159  eV     2   --> B_2  D_4  S_4  
     e(  5 -  5) =      6.17131  eV     1   --> A_1  D_1  S_1  
     e(  6 -  6) =      7.79444  eV     1   --> A_1  D_1  S_1  
     e(  7 -  8) =     10.94713  eV     2   --> B_1  D_3  S_3  
     e(  7 -  8) =     10.94713  eV     2   --> B_2  D_4  S_4  
     e(  9 -  9) =     11.91736  eV     1   --> A_1  D_1  S_1  
     e( 10 - 10) =     14.67126  eV     1   --> A_1  D_1  S_1  
     e( 11 - 11) =     14.97600  eV     1   --> A_2  D_2  S_2  
     e( 12 - 13) =     16.95942  eV     2   --> B_1  D_3  S_3  
     e( 12 - 13) =     16.95942  eV     2   --> B_2  D_4  S_4  
     e( 14 - 14) =     17.61231  eV     1   --> A_1  D_1  S_1  
     e( 15 - 16) =     21.37910  eV     2   --> B_1  D_3  S_3  
     e( 15 - 16) =     21.37910  eV     2   --> B_2  D_4  S_4  
     e( 17 - 17) =     22.38482  eV     1   --> A_2  D_2  S_2  
     e( 18 - 18) =     23.09100  eV     1   --> A_1  D_1  S_1  
     e( 19 - 19) =     24.20455  eV     1   --> A_1  D_1  S_1  
     e( 20 - 20) =     29.76838  eV     1   --> A_1  D_1  S_1  
     e( 21 - 22) =     29.77939  eV     2   --> B_1  D_3  S_3  
     e( 21 - 22) =     29.77939  eV     2   --> B_2  D_4  S_4  
     e( 23 - 23) =     30.44195  eV     1   --> A_1  D_1  S_1  
     e( 24 - 25) =     30.72763  eV     2   --> B_1  D_3  S_3  
     e( 24 - 25) =     30.72763  eV     2   --> B_2  D_4  S_4  
     e( 26 - 26) =     31.61340  eV     1   --> A_1  D_1  S_1  
     e( 27 - 27) =     33.08508  eV     1   --> A_1  D_1  S_1  
     e( 28 - 28) =     36.08550  eV     1   --> A_1  D_1  S_1  
     e( 29 - 30) =     36.95985  eV     2   --> B_1  D_3  S_3  
     e( 29 - 30) =     36.95985  eV     2   --> B_2  D_4  S_4  
     e( 31 - 31) =     37.87236  eV     1   --> A_2  D_2  S_2  
     e( 32 - 32) =     38.04999  eV     1   -->   ?

 **************************************************************************

 **************************************************************************

                    xk=(  -0.53333,   0.00000,   0.00000  )

     Band symmetry, C_2v (mm2)  point group:

     e(  1 -  1) =     -5.96774  eV     1   --> A_1  D_1  S_1  
     e(  2 -  2) =      0.58257  eV     1   --> A_1  D_1  S_1  
     e(  3 -  4) =      3.06290  eV     2   --> B_1  D_3  S_3  
     e(  3 -  4) =      3.06290  eV     2   --> B_2  D_4  S_4  
     e(  5 -  5) =      6.13036  eV     1   --> A_1  D_1  S_1  
     e(  6 -  6) =      7.72395  eV     1   --> A_1  D_1  S_1  
     e(  7 -  8) =     11.08452  eV     2   --> B_1  D_3  S_3  
     e(  7 -  8) =     11.08452  eV     2   --> B_2  D_4  S_4  
     e(  9 -  9) =     12.03441  eV     1   --> A_1  D_1  S_1  
     e( 10 - 10) =     14.84229  eV     1   --> A_1  D_1  S_1  
     e( 11 - 11) =     15.04226  eV     1   --> A_2  D_2  S_2  
     e( 12 - 13) =     17.09568  eV     2   --> B_1  D_3  S_3  
     e( 12 - 13) =     17.09568  eV     2   --> B_2  D_4  S_4  
     e( 14 - 14) =     17.72652  eV     1   --> A_1  D_1  S_1  
     e( 15 - 16) =     21.17081  eV     2   --> B_1  D_3  S_3  
     e( 15 - 16) =     21.17081  eV     2   --> B_2  D_4  S_4  
     e( 17 - 17) =     22.19494  eV     1   --> A_2  D_2  S_2  
     e( 18 - 18) =     22.92700  eV     1   --> A_1  D_1  S_1  
     e( 19 - 19) =     24.51305  eV     1   --> A_1  D_1  S_1  
     e( 20 - 20) =     29.79822  eV     1   --> A_1  D_1  S_1  
     e( 21 - 22) =     29.82993  eV     2   --> B_1  D_3  S_3  
     e( 21 - 22) =     29.82993  eV     2   --> B_2  D_4  S_4  
     e( 23 - 23) =     30.20134  eV     1   --> A_1  D_1  S_1  
     e( 24 - 25) =     30.42785  eV     2   --> B_1  D_3  S_3  
     e( 24 - 25) =     30.42785  eV     2   --> B_2  D_4  S_4  
     e( 26 - 26) =     31.29618  eV     1   --> A_1  D_1  S_1  
     e( 27 - 27) =     33.11729  eV     1   --> A_1  D_1  S_1  
     e( 28 - 28) =     35.96812  eV     1   --> A_1  D_1  S_1  
     e( 29 - 30) =     36.85511  eV     2   --> B_1  D_3  S_3  
     e( 29 - 30) =     36.85511  eV     2   --> B_2  D_4  S_4  
     e( 31 - 31) =     38.02051  eV     1   --> A_2  D_2  S_2  
     e( 32 - 32) =     38.32088  eV     1   -->   ?

 **************************************************************************

 **************************************************************************

                    xk=(  -0.55000,   0.00000,   0.00000  )

     Band symmetry, C_2v (mm2)  point group:

     e(  1 -  1) =     -5.90756  eV     1   --> A_1  D_1  S_1  
     e(  2 -  2) =      0.44784  eV     1   --> A_1  D_1  S_1  
     e(  3 -  4) =      3.00594  eV     2   --> B_1  D_3  S_3  
     e(  3 -  4) =      3.00594  eV     2   --> B_2  D_4  S_4  
     e(  5 -  5) =      6.09135  eV     1   --> A_1  D_1  S_1  
     e(  6 -  6) =      7.64989  eV     1   --> A_1  D_1  S_1  
     e(  7 -  8) =     11.22233  eV     2   --> B_1  D_3  S_3  
     e(  7 -  8) =     11.22233  eV     2   --> B_2  D_4  S_4  
     e(  9 -  9) =     12.15835  eV     1   --> A_1  D_1  S_1  
     e( 10 - 10) =     15.01283  eV     1   --> A_1  D_1  S_1  
     e( 11 - 11) =     15.11064  eV     1   --> A_2  D_2  S_2  
     e( 12 - 13) =     17.23624  eV     2   --> B_1  D_3  S_3  
     e( 12 - 13) =     17.23624  eV     2   --> B_2  D_4  S_4  
     e( 14 - 14) =     17.84457  eV     1   --> A_1  D_1  S_1  
     e( 15 - 16) =     20.96464  eV     2   --> B_1  D_3  S_3  
[...]
     e( 16 - 16) =     21.96613  eV     1   --> A'             
     e( 17 - 17) =     22.83280  eV     1   --> A'             
     e( 18 - 18) =     23.55688  eV     1   --> A''            
     e( 19 - 19) =     24.24439  eV     1   --> A'             
     e( 20 - 20) =     25.13782  eV     1   --> A''            
     e( 21 - 21) =     25.22506  eV     1   --> A'             
     e( 22 - 22) =     26.39049  eV     1   --> A'             
     e( 23 - 23) =     27.04232  eV     1   --> A'             
     e( 24 - 24) =     28.90209  eV     1   --> A'             
     e( 25 - 25) =     29.57477  eV     1   --> A''            
     e( 26 - 26) =     31.30122  eV     1   --> A''            
     e( 27 - 27) =     31.67026  eV     1   --> A'             
     e( 28 - 28) =     32.71098  eV     1   --> A'             
     e( 29 - 29) =     34.42302  eV     1   --> A'             
     e( 30 - 30) =     34.81126  eV     1   --> A''            
     e( 31 - 31) =     35.76076  eV     1   --> A'             
     e( 32 - 32) =     36.40212  eV     1   --> A'             

 **************************************************************************

 **************************************************************************

                    xk=(  -0.72083,   0.72083,   0.05833  )

     Band symmetry, C_s (m)     point group:

     e(  1 -  1) =     -4.49871  eV     1   --> A'             
     e(  2 -  2) =     -1.83368  eV     1   --> A'             
     e(  3 -  3) =      1.03438  eV     1   --> A'             
     e(  4 -  4) =      2.73780  eV     1   --> A''            
     e(  5 -  5) =      6.45004  eV     1   --> A'             
     e(  6 -  6) =      9.57003  eV     1   --> A'             
     e(  7 -  7) =     11.49861  eV     1   --> A'             
     e(  8 -  8) =     11.80676  eV     1   --> A''            
     e(  9 -  9) =     12.77177  eV     1   --> A'             
     e( 10 - 10) =     14.03087  eV     1   --> A''            
     e( 11 - 11) =     17.52402  eV     1   --> A'             
     e( 12 - 12) =     18.34550  eV     1   --> A'             
     e( 13 - 13) =     19.89808  eV     1   --> A''            
     e( 14 - 14) =     19.98689  eV     1   --> A'             
     e( 15 - 15) =     21.46157  eV     1   --> A''            
     e( 16 - 16) =     21.89081  eV     1   --> A'             
     e( 17 - 17) =     22.92801  eV     1   --> A'             
     e( 18 - 18) =     23.57864  eV     1   --> A''            
     e( 19 - 19) =     24.21653  eV     1   --> A'             
     e( 20 - 20) =     24.98614  eV     1   --> A''            
     e( 21 - 21) =     25.19811  eV     1   --> A'             
     e( 22 - 22) =     26.40899  eV     1   --> A'             
     e( 23 - 23) =     27.07956  eV     1   --> A'             
     e( 24 - 24) =     28.70323  eV     1   --> A'             
     e( 25 - 25) =     29.68018  eV     1   --> A''            
     e( 26 - 26) =     31.32296  eV     1   --> A''            
     e( 27 - 27) =     31.77755  eV     1   --> A'             
     e( 28 - 28) =     32.74926  eV     1   --> A'             
     e( 29 - 29) =     34.55684  eV     1   --> A'             
     e( 30 - 30) =     34.79871  eV     1   --> A''            
     e( 31 - 31) =     35.77443  eV     1   --> A'             
     e( 32 - 32) =     36.35757  eV     1   --> A'             

 **************************************************************************

 **************************************************************************

                    xk=(  -0.72500,   0.72500,   0.05000  )

     Band symmetry, C_s (m)     point group:

     e(  1 -  1) =     -4.48316  eV     1   --> A'             
     e(  2 -  2) =     -1.84843  eV     1   --> A'             
     e(  3 -  3) =      1.03173  eV     1   --> A'             
     e(  4 -  4) =      2.72063  eV     1   --> A''            
     e(  5 -  5) =      6.43342  eV     1   --> A'             
     e(  6 -  6) =      9.49139  eV     1   --> A'             
     e(  7 -  7) =     11.59522  eV     1   --> A'             
     e(  8 -  8) =     11.87597  eV     1   --> A''            
     e(  9 -  9) =     12.75930  eV     1   --> A'             
     e( 10 - 10) =     14.04142  eV     1   --> A''            
     e( 11 - 11) =     17.63500  eV     1   --> A'             
     e( 12 - 12) =     18.35630  eV     1   --> A'             
     e( 13 - 13) =     19.94457  eV     1   --> A'             
     e( 14 - 14) =     19.94552  eV     1   --> A''            
     e( 15 - 15) =     21.32563  eV     1   --> A''            
     e( 16 - 16) =     21.81407  eV     1   --> A'             
     e( 17 - 17) =     23.02388  eV     1   --> A'             
     e( 18 - 18) =     23.60262  eV     1   --> A''            
     e( 19 - 19) =     24.17754  eV     1   --> A'             
     e( 20 - 20) =     24.83627  eV     1   --> A''            
     e( 21 - 21) =     25.17968  eV     1   --> A'             
     e( 22 - 22) =     26.43674  eV     1   --> A'             
     e( 23 - 23) =     27.11983  eV     1   --> A'             
     e( 24 - 24) =     28.50732  eV     1   --> A'             
     e( 25 - 25) =     29.78631  eV     1   --> A''            
     e( 26 - 26) =     31.34421  eV     1   --> A''            
     e( 27 - 27) =     31.88591  eV     1   --> A'             
     e( 28 - 28) =     32.78256  eV     1   --> A'             
     e( 29 - 29) =     34.69315  eV     1   --> A'             
     e( 30 - 30) =     34.78460  eV     1   --> A''            
     e( 31 - 31) =     35.78303  eV     1   --> A'             
     e( 32 - 32) =     36.31850  eV     1   --> A'             

 **************************************************************************

 **************************************************************************

                    xk=(  -0.72917,   0.72917,   0.04167  )

     Band symmetry, C_s (m)     point group:

     e(  1 -  1) =     -4.46870  eV     1   --> A'             
     e(  2 -  2) =     -1.86273  eV     1   --> A'             
     e(  3 -  3) =      1.03167  eV     1   --> A'             
     e(  4 -  4) =      2.70405  eV     1   --> A''            
     e(  5 -  5) =      6.41741  eV     1   --> A'             
     e(  6 -  6) =      9.41253  eV     1   --> A'             
     e(  7 -  7) =     11.68885  eV     1   --> A'             
     e(  8 -  8) =     11.94230  eV     1   --> A''            
     e(  9 -  9) =     12.75181  eV     1   --> A'             
     e( 10 - 10) =     14.05638  eV     1   --> A''            
     e( 11 - 11) =     17.73354  eV     1   --> A'             
     e( 12 - 12) =     18.37185  eV     1   --> A'             
     e( 13 - 13) =     19.90576  eV     1   --> A'             
     e( 14 - 14) =     19.98744  eV     1   --> A''            
     e( 15 - 15) =     21.19457  eV     1   --> A''            
     e( 16 - 16) =     21.73768  eV     1   --> A'             
     e( 17 - 17) =     23.11916  eV     1   --> A'             
     e( 18 - 18) =     23.62829  eV     1   --> A''            
     e( 19 - 19) =     24.12666  eV     1   --> A'             
     e( 20 - 20) =     24.68880  eV     1   --> A''            
     e( 21 - 21) =     25.17193  eV     1   --> A'             
     e( 22 - 22) =     26.47147  eV     1   --> A'             
     e( 23 - 23) =     27.16301  eV     1   --> A'             
     e( 24 - 24) =     28.31522  eV     1   --> A'             
     e( 25 - 25) =     29.89305  eV     1   --> A''            
     e( 26 - 26) =     31.36492  eV     1   --> A''            
     e( 27 - 27) =     31.99527  eV     1   --> A'             
     e( 28 - 28) =     32.81112  eV     1   --> A'             
     e( 29 - 29) =     34.76921  eV     1   --> A''            
     e( 30 - 30) =     34.83056  eV     1   --> A'             
     e( 31 - 31) =     35.78535  eV     1   --> A'             
     e( 32 - 32) =     36.28382  eV     1   --> A'             

 **************************************************************************

 **************************************************************************

                    xk=(  -0.73333,   0.73333,   0.03333  )

     Band symmetry, C_s (m)     point group:

     e(  1 -  1) =     -4.45544  eV     1   --> A'             
     e(  2 -  2) =     -1.87639  eV     1   --> A'             
     e(  3 -  3) =      1.03411  eV     1   --> A'             
     e(  4 -  4) =      2.68808  eV     1   --> A''            
     e(  5 -  5) =      6.40204  eV     1   --> A'             
     e(  6 -  6) =      9.33371  eV     1   --> A'             
     e(  7 -  7) =     11.77768  eV     1   --> A'             
     e(  8 -  8) =     12.00541  eV     1   --> A''            
     e(  9 -  9) =     12.75085  eV     1   --> A'             
     e( 10 - 10) =     14.07606  eV     1   --> A''            
     e( 11 - 11) =     17.81481  eV     1   --> A'             
     e( 12 - 12) =     18.39546  eV     1   --> A'             
     e( 13 - 13) =     19.87168  eV     1   --> A'             
     e( 14 - 14) =     20.02198  eV     1   --> A''            
     e( 15 - 15) =     21.07021  eV     1   --> A''            
     e( 16 - 16) =     21.66284  eV     1   --> A'             
     e( 17 - 17) =     23.21285  eV     1   --> A'             
     e( 18 - 18) =     23.65465  eV     1   --> A''            
     e( 19 - 19) =     24.06479  eV     1   --> A'             
     e( 20 - 20) =     24.54479  eV     1   --> A''            
     e( 21 - 21) =     25.17528  eV     1   --> A'             
     e( 22 - 22) =     26.51086  eV     1   --> A'             
     e( 23 - 23) =     27.20894  eV     1   --> A'             
     e( 24 - 24) =     28.12825  eV     1   --> A'             
     e( 25 - 25) =     30.00029  eV     1   --> A''            
     e( 26 - 26) =     31.38508  eV     1   --> A''            
     e( 27 - 27) =     32.10551  eV     1   --> A'             
     e( 28 - 28) =     32.83509  eV     1   --> A'             
     e( 29 - 29) =     34.75284  eV     1   --> A''            
     e( 30 - 30) =     34.96699  eV     1   --> A'             
     e( 31 - 31) =     35.78046  eV     1   --> A'             
     e( 32 - 32) =     36.24887  eV     1   --> A'             

 **************************************************************************

 **************************************************************************

                    xk=(  -0.73750,   0.73750,   0.02500  )

     Band symmetry, C_s (m)     point group:

     e(  1 -  1) =     -4.44349  eV     1   --> A'             
     e(  2 -  2) =     -1.88921  eV     1   --> A'             
     e(  3 -  3) =      1.03898  eV     1   --> A'             
     e(  4 -  4) =      2.67274  eV     1   --> A''            
     e(  5 -  5) =      6.38732  eV     1   --> A'             
     e(  6 -  6) =      9.25516  eV     1   --> A'             
     e(  7 -  7) =     11.85957  eV     1   --> A'             
     e(  8 -  8) =     12.06497  eV     1   --> A''            
     e(  9 -  9) =     12.75834  eV     1   --> A'             
     e( 10 - 10) =     14.10075  eV     1   --> A''            
     e( 11 - 11) =     17.87434  eV     1   --> A'             
     e( 12 - 12) =     18.42954  eV     1   --> A'             
     e( 13 - 13) =     19.84406  eV     1   --> A'             
     e( 14 - 14) =     20.04630  eV     1   --> A''            
     e( 15 - 15) =     20.95540  eV     1   --> A''            
     e( 16 - 16) =     21.59041  eV     1   --> A'             
     e( 17 - 17) =     23.30357  eV     1   --> A'             
     e( 18 - 18) =     23.67973  eV     1   --> A''            
     e( 19 - 19) =     23.99458  eV     1   --> A'             
     e( 20 - 20) =     24.40628  eV     1   --> A''            
     e( 21 - 21) =     25.18869  eV     1   --> A'             
     e( 22 - 22) =     26.55236  eV     1   --> A'             
     e( 23 - 23) =     27.25716  eV     1   --> A'             
     e( 24 - 24) =     27.94868  eV     1   --> A'             
     e( 25 - 25) =     30.10792  eV     1   --> A''            
     e( 26 - 26) =     31.40468  eV     1   --> A''            
     e( 27 - 27) =     32.21649  eV     1   --> A'             
     e( 28 - 28) =     32.85463  eV     1   --> A'             
     e( 29 - 29) =     34.73582  eV     1   --> A''            
     e( 30 - 30) =     35.09874  eV     1   --> A'             
     e( 31 - 31) =     35.76789  eV     1   --> A'             
     e( 32 - 32) =     36.20108  eV     1   --> A'             

 **************************************************************************

 **************************************************************************

                    xk=(  -0.74167,   0.74167,   0.01667  )

     Band symmetry, C_s (m)     point group:

     e(  1 -  1) =     -4.43297  eV     1   --> A'             
     e(  2 -  2) =     -1.90099  eV     1   --> A'             
     e(  3 -  3) =      1.04619  eV     1   --> A'             
     e(  4 -  4) =      2.65803  eV     1   --> A''            
     e(  5 -  5) =      6.37329  eV     1   --> A'             
     e(  6 -  6) =      9.17703  eV     1   --> A'             
     e(  7 -  7) =     11.93211  eV     1   --> A'             
     e(  8 -  8) =     12.12067  eV     1   --> A''            
     e(  9 -  9) =     12.77651  eV     1   --> A'             
     e( 10 - 10) =     14.13072  eV     1   --> A''            
     e( 11 - 11) =     17.91036  eV     1   --> A'             
     e( 12 - 12) =     18.47320  eV     1   --> A'             
     e( 13 - 13) =     19.82531  eV     1   --> A'             
     e( 14 - 14) =     20.05623  eV     1   --> A''            
     e( 15 - 15) =     20.85430  eV     1   --> A''            
     e( 16 - 16) =     21.52103  eV     1   --> A'             
     e( 17 - 17) =     23.38847  eV     1   --> A'             
     e( 18 - 18) =     23.69930  eV     1   --> A''            
     e( 19 - 19) =     23.92085  eV     1   --> A'             
     e( 20 - 20) =     24.27752  eV     1   --> A''            
     e( 21 - 21) =     25.21021  eV     1   --> A'             
     e( 22 - 22) =     26.59276  eV     1   --> A'             
     e( 23 - 23) =     27.30602  eV     1   --> A'             
     e( 24 - 24) =     27.78099  eV     1   --> A'             
     e( 25 - 25) =     30.21575  eV     1   --> A''            
     e( 26 - 26) =     31.42376  eV     1   --> A''            
     e( 27 - 27) =     32.32797  eV     1   --> A'             
     e( 28 - 28) =     32.86990  eV     1   --> A'             
     e( 29 - 29) =     34.71851  eV     1   --> A''            
     e( 30 - 30) =     35.21823  eV     1   --> A'             
     e( 31 - 31) =     35.74766  eV     1   --> A'             
     e( 32 - 32) =     36.12582  eV     1   --> A'             

 **************************************************************************

 **************************************************************************

                    xk=(  -0.74583,   0.74583,   0.00833  )

     Band symmetry, C_s (m)     point group:

     e(  1 -  1) =     -4.42400  eV     1   --> A'             
     e(  2 -  2) =     -1.91153  eV     1   --> A'             
     e(  3 -  3) =      1.05564  eV     1   --> A'             
     e(  4 -  4) =      2.64396  eV     1   --> A''            
     e(  5 -  5) =      6.35994  eV     1   --> A'             
     e(  6 -  6) =      9.09946  eV     1   --> A'             
     e(  7 -  7) =     11.99301  eV     1   --> A'             
     e(  8 -  8) =     12.17227  eV     1   --> A''            
     e(  9 -  9) =     12.80750  eV     1   --> A'             
     e( 10 - 10) =     14.16618  eV     1   --> A''            
     e( 11 - 11) =     17.92486  eV     1   --> A'             
     e( 12 - 12) =     18.52119  eV     1   --> A'             
     e( 13 - 13) =     19.81846  eV     1   --> A'             
     e( 14 - 14) =     20.04642  eV     1   --> A''            
     e( 15 - 15) =     20.77227  eV     1   --> A''            
     e( 16 - 16) =     21.45519  eV     1   --> A'             
     e( 17 - 17) =     23.46012  eV     1   --> A'             
     e( 18 - 18) =     23.70421  eV     1   --> A''            
     e( 19 - 19) =     23.85323  eV     1   --> A'             
     e( 20 - 20) =     24.16770  eV     1   --> A''            
     e( 21 - 21) =     25.23748  eV     1   --> A'             
     e( 22 - 22) =     26.62740  eV     1   --> A'             
     e( 23 - 23) =     27.34872  eV     1   --> A'             
     e( 24 - 24) =     27.63656  eV     1   --> A'             
     e( 25 - 25) =     30.32358  eV     1   --> A''            
     e( 26 - 26) =     31.44240  eV     1   --> A''            
     e( 27 - 27) =     32.43945  eV     1   --> A'             
     e( 28 - 28) =     32.88118  eV     1   --> A'             
     e( 29 - 29) =     34.70126  eV     1   --> A''            
     e( 30 - 30) =     35.30799  eV     1   --> A'             
     e( 31 - 31) =     35.72161  eV     1   --> A'             
     e( 32 - 32) =     36.04247  eV     1   --> A'             

 **************************************************************************

 **************************************************************************

                    xk=(  -0.75000,   0.75000,   0.00000  )

     Band symmetry, C_s (m)     point group:

     e(  1 -  1) =     -4.41670  eV     1   --> A'             
     e(  2 -  2) =     -1.92062  eV     1   --> A'             
     e(  3 -  3) =      1.06725  eV     1   --> A'             
     e(  4 -  4) =      2.63056  eV     1   --> A''            
     e(  5 -  5) =      6.34730  eV     1   --> A'             
     e(  6 -  6) =      9.02255  eV     1   --> A'             
     e(  7 -  7) =     12.04072  eV     1   --> A'             
     e(  8 -  8) =     12.21958  eV     1   --> A''            
     e(  9 -  9) =     12.85276  eV     1   --> A'             
     e( 10 - 10) =     14.20729  eV     1   --> A''            
     e( 11 - 11) =     17.92203  eV     1   --> A'             
     e( 12 - 12) =     18.56575  eV     1   --> A'             
     e( 13 - 13) =     19.82691  eV     1   --> A'             
     e( 14 - 14) =     20.01206  eV     1   --> A''            
     e( 15 - 15) =     20.71415  eV     1   --> A''            
     e( 16 - 16) =     21.39324  eV     1   --> A'             
     e( 17 - 17) =     23.49886  eV     1   --> A'             
     e( 18 - 18) =     23.67800  eV     1   --> A''            
     e( 19 - 19) =     23.81340  eV     1   --> A'             
     e( 20 - 20) =     24.09329  eV     1   --> A''            
     e( 21 - 21) =     25.26793  eV     1   --> A'             
     e( 22 - 22) =     26.64905  eV     1   --> A'             
     e( 23 - 23) =     27.35550  eV     1   --> A'             
     e( 24 - 24) =     27.55280  eV     1   --> A'             
     e( 25 - 25) =     30.43112  eV     1   --> A''            
     e( 26 - 26) =     31.46077  eV     1   --> A''            
     e( 27 - 27) =     32.54981  eV     1   --> A'             
     e( 28 - 28) =     32.88934  eV     1   --> A'             
     e( 29 - 29) =     34.68442  eV     1   --> A''            
     e( 30 - 30) =     35.33378  eV     1   --> A'             
     e( 31 - 31) =     35.69839  eV     1   --> A'             
     e( 32 - 32) =     35.99930  eV     1   --> A'             

 **************************************************************************
 
     BANDS        :     29.42s CPU     35.85s WALL

 
   This run was terminated on:  14: 1:53  23Feb2023            

=------------------------------------------------------------------------------=
   JOB DONE.
=------------------------------------------------------------------------------=
