
     Program PWSCF v.7.1 starts on  1Feb2023 at 10:25:48 

     This program is part of the open-source Quantum ESPRESSO suite
     for quantum simulation of materials; please cite
         "P. Giannozzi et al., J. Phys.:Condens. Matter 21 395502 (2009);
         "P. Giannozzi et al., J. Phys.:Condens. Matter 29 465901 (2017);
         "P. Giannozzi et al., J. Chem. Phys. 152 154105 (2020);
          URL http://www.quantum-espresso.org", 
     in publications or presentations arising from this work. More details at
     http://www.quantum-espresso.org/quote

     Parallel version (MPI), running on    20 processors

     MPI processes distributed on     1 nodes
     118946 MiB available memory on the printing compute node when the environment starts
 
     Waiting for input...
     Reading input from standard input

     Current dimensions of program PWSCF are:
     Max number of different atomic species (ntypx) = 10
     Max number of k-points (npk) =  40000
     Max angular momentum in pseudopotentials (lmaxx) =  4

     Atomic positions and unit cell read from directory:
     ./work/InP.save/
     Atomic positions from file used, from input discarded
 
 
     R & G space division:  proc/nbgrp/npool/nimage =      20
     Subspace diagonalization in iterative solution of the eigenvalue problem:
     a serial algorithm will be used

 
     Parallelization info
     --------------------
     sticks:   dense  smooth     PW     G-vecs:    dense   smooth      PW
     Min          64      64     18                 1535     1535     233
     Max          65      65     19                 1540     1540     236
     Sum        1285    1285    367                30731    30731    4693
 
     Using Slab Decomposition
 


     bravais-lattice index     =            2
     lattice parameter (alat)  =      10.8238  a.u.
     unit-cell volume          =     317.0139 (a.u.)^3
     number of atoms/cell      =            2
     number of atomic types    =            2
     number of electrons       =         8.00
     number of Kohn-Sham states=           32
     kinetic-energy cutoff     =      80.0000  Ry
     charge density cutoff     =     320.0000  Ry
     Exchange-correlation= SLA-PZ-NOGX-NOGC
                           (   1   1   0   0   0   0   0)

     celldm(1)=  10.823792  celldm(2)=   0.000000  celldm(3)=   0.000000
     celldm(4)=   0.000000  celldm(5)=   0.000000  celldm(6)=   0.000000

     crystal axes: (cart. coord. in units of alat)
               a(1) = (  -0.500000   0.000000   0.500000 )  
               a(2) = (   0.000000   0.500000   0.500000 )  
               a(3) = (  -0.500000   0.500000   0.000000 )  

     reciprocal axes: (cart. coord. in units 2 pi/alat)
               b(1) = ( -1.000000 -1.000000  1.000000 )  
               b(2) = (  1.000000  1.000000  1.000000 )  
               b(3) = ( -1.000000  1.000000 -1.000000 )  


     PseudoPot. # 1 for In read from file:
     ../../pseudo/In.pz-hgh.upf
     MD5 check sum: 6872a669b76e2059a5c804d9a9b24c5c
     Pseudo is Norm-conserving, Zval =  3.0
     Generated in analytical, separable form
     Using radial grid of 1241 points,  6 beta functions with: 
                l(1) =   0
                l(2) =   0
                l(3) =   0
                l(4) =   1
                l(5) =   1
                l(6) =   2

     PseudoPot. # 2 for P  read from file:
     ../../pseudo/P.pz-hgh.upf
     MD5 check sum: 95fb0514269fd57292f1f0e003240d1b
     Pseudo is Norm-conserving, Zval =  5.0
     Generated in analytical, separable form
     Using radial grid of 1147 points,  3 beta functions with: 
                l(1) =   0
                l(2) =   0
                l(3) =   1

     atomic species   valence    mass     pseudopotential
        In             3.00   114.81800     In( 1.00)
        P              5.00    30.97376     P ( 1.00)

     24 Sym. Ops. (no inversion) found


                                    s                        frac. trans.

      isym =  1     identity                                     

 cryst.   s( 1) = (     1          0          0      )
                  (     0          1          0      )
                  (     0          0          1      )

 cart.    s( 1) = (  1.0000000  0.0000000  0.0000000 )
                  (  0.0000000  1.0000000  0.0000000 )
                  (  0.0000000  0.0000000  1.0000000 )


      isym =  2     180 deg rotation - cart. axis [0,0,1]        

 cryst.   s( 2) = (     0          1         -1      )
                  (     1          0         -1      )
                  (     0          0         -1      )

 cart.    s( 2) = ( -1.0000000  0.0000000  0.0000000 )
                  (  0.0000000 -1.0000000  0.0000000 )
                  (  0.0000000  0.0000000  1.0000000 )


      isym =  3     180 deg rotation - cart. axis [0,1,0]        

 cryst.   s( 3) = (    -1          0          0      )
                  (    -1          0          1      )
                  (    -1          1          0      )

 cart.    s( 3) = ( -1.0000000  0.0000000  0.0000000 )
                  (  0.0000000  1.0000000  0.0000000 )
                  (  0.0000000  0.0000000 -1.0000000 )


      isym =  4     180 deg rotation - cart. axis [1,0,0]        

 cryst.   s( 4) = (     0         -1          1      )
                  (     0         -1          0      )
                  (     1         -1          0      )

 cart.    s( 4) = (  1.0000000  0.0000000  0.0000000 )
                  (  0.0000000 -1.0000000  0.0000000 )
                  (  0.0000000  0.0000000 -1.0000000 )


      isym =  5     120 deg rotation - cart. axis [-1,-1,-1]     

 cryst.   s( 5) = (    -1          0          1      )
                  (    -1          1          0      )
                  (    -1          0          0      )

 cart.    s( 5) = (  0.0000000  1.0000000  0.0000000 )
                  (  0.0000000  0.0000000  1.0000000 )
                  (  1.0000000  0.0000000  0.0000000 )


      isym =  6     120 deg rotation - cart. axis [-1,1,1]       

 cryst.   s( 6) = (     0          1          0      )
                  (     0          0          1      )
                  (     1          0          0      )

 cart.    s( 6) = (  0.0000000 -1.0000000  0.0000000 )
                  (  0.0000000  0.0000000  1.0000000 )
                  ( -1.0000000  0.0000000  0.0000000 )


      isym =  7     120 deg rotation - cart. axis [1,1,-1]       

 cryst.   s( 7) = (     1          0         -1      )
                  (     0          0         -1      )
                  (     0          1         -1      )

 cart.    s( 7) = (  0.0000000  1.0000000  0.0000000 )
                  (  0.0000000  0.0000000 -1.0000000 )
                  ( -1.0000000  0.0000000  0.0000000 )


      isym =  8     120 deg rotation - cart. axis [1,-1,1]       

 cryst.   s( 8) = (     0         -1          0      )
                  (     1         -1          0      )
                  (     0         -1          1      )

 cart.    s( 8) = (  0.0000000 -1.0000000  0.0000000 )
                  (  0.0000000  0.0000000 -1.0000000 )
                  (  1.0000000  0.0000000  0.0000000 )


      isym =  9     120 deg rotation - cart. axis [1,1,1]        

 cryst.   s( 9) = (     0          0         -1      )
                  (     0          1         -1      )
                  (     1          0         -1      )

 cart.    s( 9) = (  0.0000000  0.0000000  1.0000000 )
                  (  1.0000000  0.0000000  0.0000000 )
                  (  0.0000000  1.0000000  0.0000000 )


      isym = 10     120 deg rotation - cart. axis [-1,1,-1]      

 cryst.   s(10) = (    -1          1          0      )
                  (    -1          0          0      )
                  (    -1          0          1      )

 cart.    s(10) = (  0.0000000  0.0000000  1.0000000 )
                  ( -1.0000000  0.0000000  0.0000000 )
                  (  0.0000000 -1.0000000  0.0000000 )


      isym = 11     120 deg rotation - cart. axis [1,-1,-1]      

 cryst.   s(11) = (     0          0          1      )
                  (     1          0          0      )
                  (     0          1          0      )

 cart.    s(11) = (  0.0000000  0.0000000 -1.0000000 )
                  ( -1.0000000  0.0000000  0.0000000 )
                  (  0.0000000  1.0000000  0.0000000 )


      isym = 12     120 deg rotation - cart. axis [-1,-1,1]      

 cryst.   s(12) = (     1         -1          0      )
                  (     0         -1          1      )
                  (     0         -1          0      )

 cart.    s(12) = (  0.0000000  0.0000000 -1.0000000 )
                  (  1.0000000  0.0000000  0.0000000 )
                  (  0.0000000 -1.0000000  0.0000000 )


      isym = 13     inv. 180 deg rotation - cart. axis [1,1,0]   

 cryst.   s(13) = (     0          1          0      )
                  (     1          0          0      )
                  (     0          0          1      )

 cart.    s(13) = (  0.0000000 -1.0000000  0.0000000 )
                  ( -1.0000000  0.0000000  0.0000000 )
                  (  0.0000000  0.0000000  1.0000000 )


      isym = 14     inv. 180 deg rotation - cart. axis [1,-1,0]  

 cryst.   s(14) = (     1          0         -1      )
                  (     0          1         -1      )
                  (     0          0         -1      )

 cart.    s(14) = (  0.0000000  1.0000000  0.0000000 )
                  (  1.0000000  0.0000000  0.0000000 )
                  (  0.0000000  0.0000000  1.0000000 )


      isym = 15     inv.  90 deg rotation - cart. axis [0,0,-1]  

 cryst.   s(15) = (     0         -1          0      )
                  (     0         -1          1      )
                  (     1         -1          0      )

 cart.    s(15) = (  0.0000000 -1.0000000  0.0000000 )
                  (  1.0000000  0.0000000  0.0000000 )
                  (  0.0000000  0.0000000 -1.0000000 )


      isym = 16     inv.  90 deg rotation - cart. axis [0,0,1]   

 cryst.   s(16) = (    -1          0          1      )
                  (    -1          0          0      )
                  (    -1          1          0      )

 cart.    s(16) = (  0.0000000  1.0000000  0.0000000 )
                  ( -1.0000000  0.0000000  0.0000000 )
                  (  0.0000000  0.0000000 -1.0000000 )


      isym = 17     inv. 180 deg rotation - cart. axis [1,0,1]   

 cryst.   s(17) = (     1          0          0      )
                  (     0          0          1      )
                  (     0          1          0      )

 cart.    s(17) = (  0.0000000  0.0000000 -1.0000000 )
                  (  0.0000000  1.0000000  0.0000000 )
                  ( -1.0000000  0.0000000  0.0000000 )


      isym = 18     inv. 180 deg rotation - cart. axis [-1,0,1]  

 cryst.   s(18) = (    -1          0          0      )
                  (    -1          1          0      )
                  (    -1          0          1      )

 cart.    s(18) = (  0.0000000  0.0000000  1.0000000 )
                  (  0.0000000  1.0000000  0.0000000 )
                  (  1.0000000  0.0000000  0.0000000 )


      isym = 19     inv.  90 deg rotation - cart. axis [0,1,0]   

 cryst.   s(19) = (     0         -1          1      )
                  (     1         -1          0      )
                  (     0         -1          0      )

 cart.    s(19) = (  0.0000000  0.0000000 -1.0000000 )
                  (  0.0000000 -1.0000000  0.0000000 )
                  (  1.0000000  0.0000000  0.0000000 )


      isym = 20     inv.  90 deg rotation - cart. axis [0,-1,0]  

 cryst.   s(20) = (     0          1         -1      )
                  (     0          0         -1      )
                  (     1          0         -1      )

 cart.    s(20) = (  0.0000000  0.0000000  1.0000000 )
                  (  0.0000000 -1.0000000  0.0000000 )
                  ( -1.0000000  0.0000000  0.0000000 )


      isym = 21     inv. 180 deg rotation - cart. axis [0,1,1]   

 cryst.   s(21) = (     1         -1          0      )
                  (     0         -1          0      )
                  (     0         -1          1      )

 cart.    s(21) = (  1.0000000  0.0000000  0.0000000 )
                  (  0.0000000  0.0000000 -1.0000000 )
                  (  0.0000000 -1.0000000  0.0000000 )


      isym = 22     inv. 180 deg rotation - cart. axis [0,1,-1]  

 cryst.   s(22) = (     0          0          1      )
                  (     0          1          0      )
                  (     1          0          0      )

 cart.    s(22) = (  1.0000000  0.0000000  0.0000000 )
                  (  0.0000000  0.0000000  1.0000000 )
                  (  0.0000000  1.0000000  0.0000000 )


      isym = 23     inv.  90 deg rotation - cart. axis [-1,0,0]  

 cryst.   s(23) = (     0          0         -1      )
                  (     1          0         -1      )
                  (     0          1         -1      )

 cart.    s(23) = ( -1.0000000  0.0000000  0.0000000 )
                  (  0.0000000  0.0000000 -1.0000000 )
                  (  0.0000000  1.0000000  0.0000000 )


      isym = 24     inv.  90 deg rotation - cart. axis [1,0,0]   

 cryst.   s(24) = (    -1          1          0      )
                  (    -1          0          1      )
                  (    -1          0          0      )

 cart.    s(24) = ( -1.0000000  0.0000000  0.0000000 )
                  (  0.0000000  0.0000000  1.0000000 )
                  (  0.0000000 -1.0000000  0.0000000 )


     point group T_d (-43m) 
     there are  5 classes
     the character table:

       E     8C3   3C2   6S4   6s_d 
A_1    1.00  1.00  1.00  1.00  1.00
A_2    1.00  1.00  1.00 -1.00 -1.00
E      2.00 -1.00  2.00  0.00  0.00
T_1    3.00  0.00 -1.00  1.00 -1.00
T_2    3.00  0.00 -1.00 -1.00  1.00

     the symmetry operations in each class and the name of the first element:

     E        1
          identity                                               
     8C3      5    7    8    6   12    9   10   11
          120 deg rotation - cart. axis [-1,-1,-1]               
     3C2      2    3    4
          180 deg rotation - cart. axis [0,0,1]                  
     6S4     15   16   20   19   23   24
          inv.  90 deg rotation - cart. axis [0,0,-1]            
     6s_d    13   14   17   18   21   22
          inv. 180 deg rotation - cart. axis [1,1,0]             

   Cartesian axes

     site n.     atom                  positions (alat units)
         1           In  tau(   1) = (   0.0000000   0.0000000   0.0000000  )
         2           P   tau(   2) = (  -0.2500000   0.2500000   0.2500000  )

   Crystallographic axes

     site n.     atom                  positions (cryst. coord.)
         1           In  tau(   1) = (  0.0000000  0.0000000  0.0000000  )
         2           P   tau(   2) = (  0.2500000  0.2500000  0.2500000  )

     number of k points=   491
                       cart. coord. in units 2pi/alat
        k(    1) = (   0.0000000   0.0000000   0.0000000), wk =   0.0040733
        k(    2) = (  -0.0166667   0.0000000   0.0000000), wk =   0.0040733
        k(    3) = (  -0.0333333   0.0000000   0.0000000), wk =   0.0040733
        k(    4) = (  -0.0500000   0.0000000   0.0000000), wk =   0.0040733
        k(    5) = (  -0.0666667   0.0000000   0.0000000), wk =   0.0040733
        k(    6) = (  -0.0833333   0.0000000   0.0000000), wk =   0.0040733
        k(    7) = (  -0.1000000   0.0000000   0.0000000), wk =   0.0040733
        k(    8) = (  -0.1166667   0.0000000   0.0000000), wk =   0.0040733
        k(    9) = (  -0.1333333   0.0000000   0.0000000), wk =   0.0040733
        k(   10) = (  -0.1500000   0.0000000   0.0000000), wk =   0.0040733
        k(   11) = (  -0.1666667   0.0000000   0.0000000), wk =   0.0040733
        k(   12) = (  -0.1833333   0.0000000   0.0000000), wk =   0.0040733
        k(   13) = (  -0.2000000   0.0000000   0.0000000), wk =   0.0040733
        k(   14) = (  -0.2166667   0.0000000   0.0000000), wk =   0.0040733
        k(   15) = (  -0.2333333   0.0000000   0.0000000), wk =   0.0040733
        k(   16) = (  -0.2500000   0.0000000   0.0000000), wk =   0.0040733
        k(   17) = (  -0.2666667   0.0000000   0.0000000), wk =   0.0040733
        k(   18) = (  -0.2833333   0.0000000   0.0000000), wk =   0.0040733
        k(   19) = (  -0.3000000   0.0000000   0.0000000), wk =   0.0040733
        k(   20) = (  -0.3166667   0.0000000   0.0000000), wk =   0.0040733
        k(   21) = (  -0.3333333   0.0000000   0.0000000), wk =   0.0040733
        k(   22) = (  -0.3500000   0.0000000   0.0000000), wk =   0.0040733
        k(   23) = (  -0.3666667   0.0000000   0.0000000), wk =   0.0040733
        k(   24) = (  -0.3833333   0.0000000   0.0000000), wk =   0.0040733
        k(   25) = (  -0.4000000   0.0000000   0.0000000), wk =   0.0040733
        k(   26) = (  -0.4166667   0.0000000   0.0000000), wk =   0.0040733
        k(   27) = (  -0.4333333   0.0000000   0.0000000), wk =   0.0040733
        k(   28) = (  -0.4500000   0.0000000   0.0000000), wk =   0.0040733
        k(   29) = (  -0.4666667   0.0000000   0.0000000), wk =   0.0040733
        k(   30) = (  -0.4833333   0.0000000   0.0000000), wk =   0.0040733
        k(   31) = (  -0.5000000   0.0000000   0.0000000), wk =   0.0040733
        k(   32) = (  -0.5166667   0.0000000   0.0000000), wk =   0.0040733
        k(   33) = (  -0.5333333   0.0000000   0.0000000), wk =   0.0040733
        k(   34) = (  -0.5500000   0.0000000   0.0000000), wk =   0.0040733
        k(   35) = (  -0.5666667   0.0000000   0.0000000), wk =   0.0040733
        k(   36) = (  -0.5833333   0.0000000   0.0000000), wk =   0.0040733
        k(   37) = (  -0.6000000   0.0000000   0.0000000), wk =   0.0040733
        k(   38) = (  -0.6166667   0.0000000   0.0000000), wk =   0.0040733
        k(   39) = (  -0.6333333   0.0000000   0.0000000), wk =   0.0040733
        k(   40) = (  -0.6500000   0.0000000   0.0000000), wk =   0.0040733
        k(   41) = (  -0.6666667   0.0000000   0.0000000), wk =   0.0040733
        k(   42) = (  -0.6833333   0.0000000   0.0000000), wk =   0.0040733
        k(   43) = (  -0.7000000   0.0000000   0.0000000), wk =   0.0040733
        k(   44) = (  -0.7166667   0.0000000   0.0000000), wk =   0.0040733
        k(   45) = (  -0.7333333   0.0000000   0.0000000), wk =   0.0040733
        k(   46) = (  -0.7500000   0.0000000   0.0000000), wk =   0.0040733
        k(   47) = (  -0.7666667   0.0000000   0.0000000), wk =   0.0040733
        k(   48) = (  -0.7833333   0.0000000   0.0000000), wk =   0.0040733
        k(   49) = (  -0.8000000   0.0000000   0.0000000), wk =   0.0040733
        k(   50) = (  -0.8166667   0.0000000   0.0000000), wk =   0.0040733
        k(   51) = (  -0.8333333   0.0000000   0.0000000), wk =   0.0040733
        k(   52) = (  -0.8500000   0.0000000   0.0000000), wk =   0.0040733
        k(   53) = (  -0.8666667   0.0000000   0.0000000), wk =   0.0040733
        k(   54) = (  -0.8833333   0.0000000   0.0000000), wk =   0.0040733
        k(   55) = (  -0.9000000   0.0000000   0.0000000), wk =   0.0040733
        k(   56) = (  -0.9166667   0.0000000   0.0000000), wk =   0.0040733
        k(   57) = (  -0.9333333   0.0000000   0.0000000), wk =   0.0040733
        k(   58) = (  -0.9500000   0.0000000   0.0000000), wk =   0.0040733
        k(   59) = (  -0.9666667   0.0000000   0.0000000), wk =   0.0040733
        k(   60) = (  -0.9833333   0.0000000   0.0000000), wk =   0.0040733
        k(   61) = (  -1.0000000   0.0000000   0.0000000), wk =   0.0040733
        k(   62) = (  -1.0000000   0.0100000   0.0000000), wk =   0.0040733
        k(   63) = (  -1.0000000   0.0200000   0.0000000), wk =   0.0040733
        k(   64) = (  -1.0000000   0.0300000   0.0000000), wk =   0.0040733
        k(   65) = (  -1.0000000   0.0400000   0.0000000), wk =   0.0040733
        k(   66) = (  -1.0000000   0.0500000   0.0000000), wk =   0.0040733
        k(   67) = (  -1.0000000   0.0600000   0.0000000), wk =   0.0040733
        k(   68) = (  -1.0000000   0.0700000   0.0000000), wk =   0.0040733
        k(   69) = (  -1.0000000   0.0800000   0.0000000), wk =   0.0040733
        k(   70) = (  -1.0000000   0.0900000   0.0000000), wk =   0.0040733
        k(   71) = (  -1.0000000   0.1000000   0.0000000), wk =   0.0040733
        k(   72) = (  -1.0000000   0.1100000   0.0000000), wk =   0.0040733
        k(   73) = (  -1.0000000   0.1200000   0.0000000), wk =   0.0040733
        k(   74) = (  -1.0000000   0.1300000   0.0000000), wk =   0.0040733
        k(   75) = (  -1.0000000   0.1400000   0.0000000), wk =   0.0040733
        k(   76) = (  -1.0000000   0.1500000   0.0000000), wk =   0.0040733
        k(   77) = (  -1.0000000   0.1600000   0.0000000), wk =   0.0040733
        k(   78) = (  -1.0000000   0.1700000   0.0000000), wk =   0.0040733
        k(   79) = (  -1.0000000   0.1800000   0.0000000), wk =   0.0040733
        k(   80) = (  -1.0000000   0.1900000   0.0000000), wk =   0.0040733
        k(   81) = (  -1.0000000   0.2000000   0.0000000), wk =   0.0040733
        k(   82) = (  -1.0000000   0.2100000   0.0000000), wk =   0.0040733
        k(   83) = (  -1.0000000   0.2200000   0.0000000), wk =   0.0040733
        k(   84) = (  -1.0000000   0.2300000   0.0000000), wk =   0.0040733
        k(   85) = (  -1.0000000   0.2400000   0.0000000), wk =   0.0040733
        k(   86) = (  -1.0000000   0.2500000   0.0000000), wk =   0.0040733
        k(   87) = (  -1.0000000   0.2600000   0.0000000), wk =   0.0040733
        k(   88) = (  -1.0000000   0.2700000   0.0000000), wk =   0.0040733
        k(   89) = (  -1.0000000   0.2800000   0.0000000), wk =   0.0040733
        k(   90) = (  -1.0000000   0.2900000   0.0000000), wk =   0.0040733
        k(   91) = (  -1.0000000   0.3000000   0.0000000), wk =   0.0040733
        k(   92) = (  -1.0000000   0.3100000   0.0000000), wk =   0.0040733
        k(   93) = (  -1.0000000   0.3200000   0.0000000), wk =   0.0040733
        k(   94) = (  -1.0000000   0.3300000   0.0000000), wk =   0.0040733
        k(   95) = (  -1.0000000   0.3400000   0.0000000), wk =   0.0040733
        k(   96) = (  -1.0000000   0.3500000   0.0000000), wk =   0.0040733
        k(   97) = (  -1.0000000   0.3600000   0.0000000), wk =   0.0040733
        k(   98) = (  -1.0000000   0.3700000   0.0000000), wk =   0.0040733
        k(   99) = (  -1.0000000   0.3800000   0.0000000), wk =   0.0040733
        k(  100) = (  -1.0000000   0.3900000   0.0000000), wk =   0.0040733
        k(  101) = (  -1.0000000   0.4000000   0.0000000), wk =   0.0040733
        k(  102) = (  -1.0000000   0.4100000   0.0000000), wk =   0.0040733
        k(  103) = (  -1.0000000   0.4200000   0.0000000), wk =   0.0040733
        k(  104) = (  -1.0000000   0.4300000   0.0000000), wk =   0.0040733
        k(  105) = (  -1.0000000   0.4400000   0.0000000), wk =   0.0040733
        k(  106) = (  -1.0000000   0.4500000   0.0000000), wk =   0.0040733
        k(  107) = (  -1.0000000   0.4600000   0.0000000), wk =   0.0040733
        k(  108) = (  -1.0000000   0.4700000   0.0000000), wk =   0.0040733
        k(  109) = (  -1.0000000   0.4800000   0.0000000), wk =   0.0040733
        k(  110) = (  -1.0000000   0.4900000   0.0000000), wk =   0.0040733
        k(  111) = (  -1.0000000   0.5000000   0.0000000), wk =   0.0040733
        k(  112) = (  -0.9950000   0.5050000   0.0000000), wk =   0.0040733
        k(  113) = (  -0.9900000   0.5100000   0.0000000), wk =   0.0040733
        k(  114) = (  -0.9850000   0.5150000   0.0000000), wk =   0.0040733
        k(  115) = (  -0.9800000   0.5200000   0.0000000), wk =   0.0040733
        k(  116) = (  -0.9750000   0.5250000   0.0000000), wk =   0.0040733
        k(  117) = (  -0.9700000   0.5300000   0.0000000), wk =   0.0040733
        k(  118) = (  -0.9650000   0.5350000   0.0000000), wk =   0.0040733
        k(  119) = (  -0.9600000   0.5400000   0.0000000), wk =   0.0040733
        k(  120) = (  -0.9550000   0.5450000   0.0000000), wk =   0.0040733
        k(  121) = (  -0.9500000   0.5500000   0.0000000), wk =   0.0040733
        k(  122) = (  -0.9450000   0.5550000   0.0000000), wk =   0.0040733
        k(  123) = (  -0.9400000   0.5600000   0.0000000), wk =   0.0040733
        k(  124) = (  -0.9350000   0.5650000   0.0000000), wk =   0.0040733
        k(  125) = (  -0.9300000   0.5700000   0.0000000), wk =   0.0040733
        k(  126) = (  -0.9250000   0.5750000   0.0000000), wk =   0.0040733
        k(  127) = (  -0.9200000   0.5800000   0.0000000), wk =   0.0040733
        k(  128) = (  -0.9150000   0.5850000   0.0000000), wk =   0.0040733
        k(  129) = (  -0.9100000   0.5900000   0.0000000), wk =   0.0040733
        k(  130) = (  -0.9050000   0.5950000   0.0000000), wk =   0.0040733
        k(  131) = (  -0.9000000   0.6000000   0.0000000), wk =   0.0040733
        k(  132) = (  -0.8950000   0.6050000   0.0000000), wk =   0.0040733
        k(  133) = (  -0.8900000   0.6100000   0.0000000), wk =   0.0040733
        k(  134) = (  -0.8850000   0.6150000   0.0000000), wk =   0.0040733
        k(  135) = (  -0.8800000   0.6200000   0.0000000), wk =   0.0040733
        k(  136) = (  -0.8750000   0.6250000   0.0000000), wk =   0.0040733
        k(  137) = (  -0.8700000   0.6300000   0.0000000), wk =   0.0040733
        k(  138) = (  -0.8650000   0.6350000   0.0000000), wk =   0.0040733
        k(  139) = (  -0.8600000   0.6400000   0.0000000), wk =   0.0040733
        k(  140) = (  -0.8550000   0.6450000   0.0000000), wk =   0.0040733
        k(  141) = (  -0.8500000   0.6500000   0.0000000), wk =   0.0040733
        k(  142) = (  -0.8450000   0.6550000   0.0000000), wk =   0.0040733
        k(  143) = (  -0.8400000   0.6600000   0.0000000), wk =   0.0040733
        k(  144) = (  -0.8350000   0.6650000   0.0000000), wk =   0.0040733
        k(  145) = (  -0.8300000   0.6700000   0.0000000), wk =   0.0040733
        k(  146) = (  -0.8250000   0.6750000   0.0000000), wk =   0.0040733
        k(  147) = (  -0.8200000   0.6800000   0.0000000), wk =   0.0040733
        k(  148) = (  -0.8150000   0.6850000   0.0000000), wk =   0.0040733
        k(  149) = (  -0.8100000   0.6900000   0.0000000), wk =   0.0040733
        k(  150) = (  -0.8050000   0.6950000   0.0000000), wk =   0.0040733
        k(  151) = (  -0.8000000   0.7000000   0.0000000), wk =   0.0040733
        k(  152) = (  -0.7950000   0.7050000   0.0000000), wk =   0.0040733
        k(  153) = (  -0.7900000   0.7100000   0.0000000), wk =   0.0040733
        k(  154) = (  -0.7850000   0.7150000   0.0000000), wk =   0.0040733
        k(  155) = (  -0.7800000   0.7200000   0.0000000), wk =   0.0040733
        k(  156) = (  -0.7750000   0.7250000   0.0000000), wk =   0.0040733
        k(  157) = (  -0.7700000   0.7300000   0.0000000), wk =   0.0040733
        k(  158) = (  -0.7650000   0.7350000   0.0000000), wk =   0.0040733
        k(  159) = (  -0.7600000   0.7400000   0.0000000), wk =   0.0040733
        k(  160) = (  -0.7550000   0.7450000   0.0000000), wk =   0.0040733
        k(  161) = (  -0.7500000   0.7500000   0.0000000), wk =   0.0040733
        k(  162) = (  -0.7350000   0.7350000   0.0000000), wk =   0.0040733
        k(  163) = (  -0.7200000   0.7200000   0.0000000), wk =   0.0040733
        k(  164) = (  -0.7050000   0.7050000   0.0000000), wk =   0.0040733
        k(  165) = (  -0.6900000   0.6900000   0.0000000), wk =   0.0040733
        k(  166) = (  -0.6750000   0.6750000   0.0000000), wk =   0.0040733
        k(  167) = (  -0.6600000   0.6600000   0.0000000), wk =   0.0040733
        k(  168) = (  -0.6450000   0.6450000   0.0000000), wk =   0.0040733
        k(  169) = (  -0.6300000   0.6300000   0.0000000), wk =   0.0040733
        k(  170) = (  -0.6150000   0.6150000   0.0000000), wk =   0.0040733
        k(  171) = (  -0.6000000   0.6000000   0.0000000), wk =   0.0040733
        k(  172) = (  -0.5850000   0.5850000   0.0000000), wk =   0.0040733
        k(  173) = (  -0.5700000   0.5700000   0.0000000), wk =   0.0040733
        k(  174) = (  -0.5550000   0.5550000   0.0000000), wk =   0.0040733
        k(  175) = (  -0.5400000   0.5400000   0.0000000), wk =   0.0040733
        k(  176) = (  -0.5250000   0.5250000   0.0000000), wk =   0.0040733
        k(  177) = (  -0.5100000   0.5100000   0.0000000), wk =   0.0040733
        k(  178) = (  -0.4950000   0.4950000   0.0000000), wk =   0.0040733
        k(  179) = (  -0.4800000   0.4800000   0.0000000), wk =   0.0040733
        k(  180) = (  -0.4650000   0.4650000   0.0000000), wk =   0.0040733
        k(  181) = (  -0.4500000   0.4500000   0.0000000), wk =   0.0040733
        k(  182) = (  -0.4350000   0.4350000   0.0000000), wk =   0.0040733
        k(  183) = (  -0.4200000   0.4200000   0.0000000), wk =   0.0040733
        k(  184) = (  -0.4050000   0.4050000   0.0000000), wk =   0.0040733
        k(  185) = (  -0.3900000   0.3900000   0.0000000), wk =   0.0040733
        k(  186) = (  -0.3750000   0.3750000   0.0000000), wk =   0.0040733
        k(  187) = (  -0.3600000   0.3600000   0.0000000), wk =   0.0040733
        k(  188) = (  -0.3450000   0.3450000   0.0000000), wk =   0.0040733
        k(  189) = (  -0.3300000   0.3300000   0.0000000), wk =   0.0040733
        k(  190) = (  -0.3150000   0.3150000   0.0000000), wk =   0.0040733
        k(  191) = (  -0.3000000   0.3000000   0.0000000), wk =   0.0040733
        k(  192) = (  -0.2850000   0.2850000   0.0000000), wk =   0.0040733
        k(  193) = (  -0.2700000   0.2700000   0.0000000), wk =   0.0040733
        k(  194) = (  -0.2550000   0.2550000   0.0000000), wk =   0.0040733
        k(  195) = (  -0.2400000   0.2400000   0.0000000), wk =   0.0040733
        k(  196) = (  -0.2250000   0.2250000   0.0000000), wk =   0.0040733
        k(  197) = (  -0.2100000   0.2100000   0.0000000), wk =   0.0040733
        k(  198) = (  -0.1950000   0.1950000   0.0000000), wk =   0.0040733
        k(  199) = (  -0.1800000   0.1800000   0.0000000), wk =   0.0040733
        k(  200) = (  -0.1650000   0.1650000   0.0000000), wk =   0.0040733
        k(  201) = (  -0.1500000   0.1500000   0.0000000), wk =   0.0040733
        k(  202) = (  -0.1350000   0.1350000   0.0000000), wk =   0.0040733
        k(  203) = (  -0.1200000   0.1200000   0.0000000), wk =   0.0040733
        k(  204) = (  -0.1050000   0.1050000   0.0000000), wk =   0.0040733
        k(  205) = (  -0.0900000   0.0900000   0.0000000), wk =   0.0040733
        k(  206) = (  -0.0750000   0.0750000   0.0000000), wk =   0.0040733
        k(  207) = (  -0.0600000   0.0600000   0.0000000), wk =   0.0040733
        k(  208) = (  -0.0450000   0.0450000   0.0000000), wk =   0.0040733
        k(  209) = (  -0.0300000   0.0300000   0.0000000), wk =   0.0040733
        k(  210) = (  -0.0150000   0.0150000   0.0000000), wk =   0.0040733
        k(  211) = (   0.0000000   0.0000000   0.0000000), wk =   0.0040733
        k(  212) = (  -0.0083333   0.0083333   0.0083333), wk =   0.0040733
        k(  213) = (  -0.0166667   0.0166667   0.0166667), wk =   0.0040733
        k(  214) = (  -0.0250000   0.0250000   0.0250000), wk =   0.0040733
        k(  215) = (  -0.0333333   0.0333333   0.0333333), wk =   0.0040733
        k(  216) = (  -0.0416667   0.0416667   0.0416667), wk =   0.0040733
        k(  217) = (  -0.0500000   0.0500000   0.0500000), wk =   0.0040733
        k(  218) = (  -0.0583333   0.0583333   0.0583333), wk =   0.0040733
        k(  219) = (  -0.0666667   0.0666667   0.0666667), wk =   0.0040733
        k(  220) = (  -0.0750000   0.0750000   0.0750000), wk =   0.0040733
        k(  221) = (  -0.0833333   0.0833333   0.0833333), wk =   0.0040733
        k(  222) = (  -0.0916667   0.0916667   0.0916667), wk =   0.0040733
        k(  223) = (  -0.1000000   0.1000000   0.1000000), wk =   0.0040733
        k(  224) = (  -0.1083333   0.1083333   0.1083333), wk =   0.0040733
        k(  225) = (  -0.1166667   0.1166667   0.1166667), wk =   0.0040733
        k(  226) = (  -0.1250000   0.1250000   0.1250000), wk =   0.0040733
        k(  227) = (  -0.1333333   0.1333333   0.1333333), wk =   0.0040733
        k(  228) = (  -0.1416667   0.1416667   0.1416667), wk =   0.0040733
        k(  229) = (  -0.1500000   0.1500000   0.1500000), wk =   0.0040733
        k(  230) = (  -0.1583333   0.1583333   0.1583333), wk =   0.0040733
        k(  231) = (  -0.1666667   0.1666667   0.1666667), wk =   0.0040733
        k(  232) = (  -0.1750000   0.1750000   0.1750000), wk =   0.0040733
        k(  233) = (  -0.1833333   0.1833333   0.1833333), wk =   0.0040733
        k(  234) = (  -0.1916667   0.1916667   0.1916667), wk =   0.0040733
        k(  235) = (  -0.2000000   0.2000000   0.2000000), wk =   0.0040733
        k(  236) = (  -0.2083333   0.2083333   0.2083333), wk =   0.0040733
        k(  237) = (  -0.2166667   0.2166667   0.2166667), wk =   0.0040733
        k(  238) = (  -0.2250000   0.2250000   0.2250000), wk =   0.0040733
        k(  239) = (  -0.2333333   0.2333333   0.2333333), wk =   0.0040733
        k(  240) = (  -0.2416667   0.2416667   0.2416667), wk =   0.0040733
        k(  241) = (  -0.2500000   0.2500000   0.2500000), wk =   0.0040733
        k(  242) = (  -0.2583333   0.2583333   0.2583333), wk =   0.0040733
        k(  243) = (  -0.2666667   0.2666667   0.2666667), wk =   0.0040733
        k(  244) = (  -0.2750000   0.2750000   0.2750000), wk =   0.0040733
        k(  245) = (  -0.2833333   0.2833333   0.2833333), wk =   0.0040733
        k(  246) = (  -0.2916667   0.2916667   0.2916667), wk =   0.0040733
        k(  247) = (  -0.3000000   0.3000000   0.3000000), wk =   0.0040733
        k(  248) = (  -0.3083333   0.3083333   0.3083333), wk =   0.0040733
        k(  249) = (  -0.3166667   0.3166667   0.3166667), wk =   0.0040733
        k(  250) = (  -0.3250000   0.3250000   0.3250000), wk =   0.0040733
        k(  251) = (  -0.3333333   0.3333333   0.3333333), wk =   0.0040733
        k(  252) = (  -0.3416667   0.3416667   0.3416667), wk =   0.0040733
        k(  253) = (  -0.3500000   0.3500000   0.3500000), wk =   0.0040733
        k(  254) = (  -0.3583333   0.3583333   0.3583333), wk =   0.0040733
        k(  255) = (  -0.3666667   0.3666667   0.3666667), wk =   0.0040733
        k(  256) = (  -0.3750000   0.3750000   0.3750000), wk =   0.0040733
        k(  257) = (  -0.3833333   0.3833333   0.3833333), wk =   0.0040733
        k(  258) = (  -0.3916667   0.3916667   0.3916667), wk =   0.0040733
        k(  259) = (  -0.4000000   0.4000000   0.4000000), wk =   0.0040733
        k(  260) = (  -0.4083333   0.4083333   0.4083333), wk =   0.0040733
        k(  261) = (  -0.4166667   0.4166667   0.4166667), wk =   0.0040733
        k(  262) = (  -0.4250000   0.4250000   0.4250000), wk =   0.0040733
        k(  263) = (  -0.4333333   0.4333333   0.4333333), wk =   0.0040733
        k(  264) = (  -0.4416667   0.4416667   0.4416667), wk =   0.0040733
        k(  265) = (  -0.4500000   0.4500000   0.4500000), wk =   0.0040733
        k(  266) = (  -0.4583333   0.4583333   0.4583333), wk =   0.0040733
        k(  267) = (  -0.4666667   0.4666667   0.4666667), wk =   0.0040733
        k(  268) = (  -0.4750000   0.4750000   0.4750000), wk =   0.0040733
        k(  269) = (  -0.4833333   0.4833333   0.4833333), wk =   0.0040733
        k(  270) = (  -0.4916667   0.4916667   0.4916667), wk =   0.0040733
        k(  271) = (  -0.5000000   0.5000000   0.5000000), wk =   0.0040733
        k(  272) = (  -0.5083333   0.4958333   0.4958333), wk =   0.0040733
        k(  273) = (  -0.5166667   0.4916667   0.4916667), wk =   0.0040733
        k(  274) = (  -0.5250000   0.4875000   0.4875000), wk =   0.0040733
        k(  275) = (  -0.5333333   0.4833333   0.4833333), wk =   0.0040733
        k(  276) = (  -0.5416667   0.4791667   0.4791667), wk =   0.0040733
        k(  277) = (  -0.5500000   0.4750000   0.4750000), wk =   0.0040733
        k(  278) = (  -0.5583333   0.4708333   0.4708333), wk =   0.0040733
        k(  279) = (  -0.5666667   0.4666667   0.4666667), wk =   0.0040733
        k(  280) = (  -0.5750000   0.4625000   0.4625000), wk =   0.0040733
        k(  281) = (  -0.5833333   0.4583333   0.4583333), wk =   0.0040733
        k(  282) = (  -0.5916667   0.4541667   0.4541667), wk =   0.0040733
        k(  283) = (  -0.6000000   0.4500000   0.4500000), wk =   0.0040733
        k(  284) = (  -0.6083333   0.4458333   0.4458333), wk =   0.0040733
        k(  285) = (  -0.6166667   0.4416667   0.4416667), wk =   0.0040733
        k(  286) = (  -0.6250000   0.4375000   0.4375000), wk =   0.0040733
        k(  287) = (  -0.6333333   0.4333333   0.4333333), wk =   0.0040733
        k(  288) = (  -0.6416667   0.4291667   0.4291667), wk =   0.0040733
        k(  289) = (  -0.6500000   0.4250000   0.4250000), wk =   0.0040733
        k(  290) = (  -0.6583333   0.4208333   0.4208333), wk =   0.0040733
        k(  291) = (  -0.6666667   0.4166667   0.4166667), wk =   0.0040733
        k(  292) = (  -0.6750000   0.4125000   0.4125000), wk =   0.0040733
        k(  293) = (  -0.6833333   0.4083333   0.4083333), wk =   0.0040733
        k(  294) = (  -0.6916667   0.4041667   0.4041667), wk =   0.0040733
        k(  295) = (  -0.7000000   0.4000000   0.4000000), wk =   0.0040733
        k(  296) = (  -0.7083333   0.3958333   0.3958333), wk =   0.0040733
        k(  297) = (  -0.7166667   0.3916667   0.3916667), wk =   0.0040733
        k(  298) = (  -0.7250000   0.3875000   0.3875000), wk =   0.0040733
        k(  299) = (  -0.7333333   0.3833333   0.3833333), wk =   0.0040733
        k(  300) = (  -0.7416667   0.3791667   0.3791667), wk =   0.0040733
        k(  301) = (  -0.7500000   0.3750000   0.3750000), wk =   0.0040733
        k(  302) = (  -0.7583333   0.3708333   0.3708333), wk =   0.0040733
        k(  303) = (  -0.7666667   0.3666667   0.3666667), wk =   0.0040733
        k(  304) = (  -0.7750000   0.3625000   0.3625000), wk =   0.0040733
        k(  305) = (  -0.7833333   0.3583333   0.3583333), wk =   0.0040733
        k(  306) = (  -0.7916667   0.3541667   0.3541667), wk =   0.0040733
        k(  307) = (  -0.8000000   0.3500000   0.3500000), wk =   0.0040733
        k(  308) = (  -0.8083333   0.3458333   0.3458333), wk =   0.0040733
        k(  309) = (  -0.8166667   0.3416667   0.3416667), wk =   0.0040733
        k(  310) = (  -0.8250000   0.3375000   0.3375000), wk =   0.0040733
        k(  311) = (  -0.8333333   0.3333333   0.3333333), wk =   0.0040733
        k(  312) = (  -0.8416667   0.3291667   0.3291667), wk =   0.0040733
        k(  313) = (  -0.8500000   0.3250000   0.3250000), wk =   0.0040733
        k(  314) = (  -0.8583333   0.3208333   0.3208333), wk =   0.0040733
        k(  315) = (  -0.8666667   0.3166667   0.3166667), wk =   0.0040733
        k(  316) = (  -0.8750000   0.3125000   0.3125000), wk =   0.0040733
        k(  317) = (  -0.8833333   0.3083333   0.3083333), wk =   0.0040733
        k(  318) = (  -0.8916667   0.3041667   0.3041667), wk =   0.0040733
        k(  319) = (  -0.9000000   0.3000000   0.3000000), wk =   0.0040733
        k(  320) = (  -0.9083333   0.2958333   0.2958333), wk =   0.0040733
        k(  321) = (  -0.9166667   0.2916667   0.2916667), wk =   0.0040733
        k(  322) = (  -0.9250000   0.2875000   0.2875000), wk =   0.0040733
        k(  323) = (  -0.9333333   0.2833333   0.2833333), wk =   0.0040733
        k(  324) = (  -0.9416667   0.2791667   0.2791667), wk =   0.0040733
        k(  325) = (  -0.9500000   0.2750000   0.2750000), wk =   0.0040733
        k(  326) = (  -0.9583333   0.2708333   0.2708333), wk =   0.0040733
        k(  327) = (  -0.9666667   0.2666667   0.2666667), wk =   0.0040733
        k(  328) = (  -0.9750000   0.2625000   0.2625000), wk =   0.0040733
        k(  329) = (  -0.9833333   0.2583333   0.2583333), wk =   0.0040733
        k(  330) = (  -0.9916667   0.2541667   0.2541667), wk =   0.0040733
        k(  331) = (  -1.0000000   0.2500000   0.2500000), wk =   0.0040733
        k(  332) = (  -1.0000000   0.2550000   0.2450000), wk =   0.0040733
        k(  333) = (  -1.0000000   0.2600000   0.2400000), wk =   0.0040733
        k(  334) = (  -1.0000000   0.2650000   0.2350000), wk =   0.0040733
        k(  335) = (  -1.0000000   0.2700000   0.2300000), wk =   0.0040733
        k(  336) = (  -1.0000000   0.2750000   0.2250000), wk =   0.0040733
        k(  337) = (  -1.0000000   0.2800000   0.2200000), wk =   0.0040733
        k(  338) = (  -1.0000000   0.2850000   0.2150000), wk =   0.0040733
        k(  339) = (  -1.0000000   0.2900000   0.2100000), wk =   0.0040733
        k(  340) = (  -1.0000000   0.2950000   0.2050000), wk =   0.0040733
        k(  341) = (  -1.0000000   0.3000000   0.2000000), wk =   0.0040733
        k(  342) = (  -1.0000000   0.3050000   0.1950000), wk =   0.0040733
        k(  343) = (  -1.0000000   0.3100000   0.1900000), wk =   0.0040733
        k(  344) = (  -1.0000000   0.3150000   0.1850000), wk =   0.0040733
        k(  345) = (  -1.0000000   0.3200000   0.1800000), wk =   0.0040733
        k(  346) = (  -1.0000000   0.3250000   0.1750000), wk =   0.0040733
        k(  347) = (  -1.0000000   0.3300000   0.1700000), wk =   0.0040733
        k(  348) = (  -1.0000000   0.3350000   0.1650000), wk =   0.0040733
        k(  349) = (  -1.0000000   0.3400000   0.1600000), wk =   0.0040733
        k(  350) = (  -1.0000000   0.3450000   0.1550000), wk =   0.0040733
        k(  351) = (  -1.0000000   0.3500000   0.1500000), wk =   0.0040733
        k(  352) = (  -1.0000000   0.3550000   0.1450000), wk =   0.0040733
        k(  353) = (  -1.0000000   0.3600000   0.1400000), wk =   0.0040733
        k(  354) = (  -1.0000000   0.3650000   0.1350000), wk =   0.0040733
        k(  355) = (  -1.0000000   0.3700000   0.1300000), wk =   0.0040733
        k(  356) = (  -1.0000000   0.3750000   0.1250000), wk =   0.0040733
        k(  357) = (  -1.0000000   0.3800000   0.1200000), wk =   0.0040733
        k(  358) = (  -1.0000000   0.3850000   0.1150000), wk =   0.0040733
        k(  359) = (  -1.0000000   0.3900000   0.1100000), wk =   0.0040733
        k(  360) = (  -1.0000000   0.3950000   0.1050000), wk =   0.0040733
        k(  361) = (  -1.0000000   0.4000000   0.1000000), wk =   0.0040733
        k(  362) = (  -1.0000000   0.4050000   0.0950000), wk =   0.0040733
        k(  363) = (  -1.0000000   0.4100000   0.0900000), wk =   0.0040733
        k(  364) = (  -1.0000000   0.4150000   0.0850000), wk =   0.0040733
        k(  365) = (  -1.0000000   0.4200000   0.0800000), wk =   0.0040733
        k(  366) = (  -1.0000000   0.4250000   0.0750000), wk =   0.0040733
        k(  367) = (  -1.0000000   0.4300000   0.0700000), wk =   0.0040733
        k(  368) = (  -1.0000000   0.4350000   0.0650000), wk =   0.0040733
        k(  369) = (  -1.0000000   0.4400000   0.0600000), wk =   0.0040733
        k(  370) = (  -1.0000000   0.4450000   0.0550000), wk =   0.0040733
        k(  371) = (  -1.0000000   0.4500000   0.0500000), wk =   0.0040733
        k(  372) = (  -1.0000000   0.4550000   0.0450000), wk =   0.0040733
        k(  373) = (  -1.0000000   0.4600000   0.0400000), wk =   0.0040733
        k(  374) = (  -1.0000000   0.4650000   0.0350000), wk =   0.0040733
        k(  375) = (  -1.0000000   0.4700000   0.0300000), wk =   0.0040733
        k(  376) = (  -1.0000000   0.4750000   0.0250000), wk =   0.0040733
        k(  377) = (  -1.0000000   0.4800000   0.0200000), wk =   0.0040733
        k(  378) = (  -1.0000000   0.4850000   0.0150000), wk =   0.0040733
        k(  379) = (  -1.0000000   0.4900000   0.0100000), wk =   0.0040733
        k(  380) = (  -1.0000000   0.4950000   0.0050000), wk =   0.0040733
        k(  381) = (  -1.0000000   0.5000000   0.0000000), wk =   0.0040733
        k(  382) = (  -0.9900000   0.5000000   0.0100000), wk =   0.0040733
        k(  383) = (  -0.9800000   0.5000000   0.0200000), wk =   0.0040733
        k(  384) = (  -0.9700000   0.5000000   0.0300000), wk =   0.0040733
        k(  385) = (  -0.9600000   0.5000000   0.0400000), wk =   0.0040733
        k(  386) = (  -0.9500000   0.5000000   0.0500000), wk =   0.0040733
        k(  387) = (  -0.9400000   0.5000000   0.0600000), wk =   0.0040733
        k(  388) = (  -0.9300000   0.5000000   0.0700000), wk =   0.0040733
        k(  389) = (  -0.9200000   0.5000000   0.0800000), wk =   0.0040733
        k(  390) = (  -0.9100000   0.5000000   0.0900000), wk =   0.0040733
        k(  391) = (  -0.9000000   0.5000000   0.1000000), wk =   0.0040733
        k(  392) = (  -0.8900000   0.5000000   0.1100000), wk =   0.0040733
        k(  393) = (  -0.8800000   0.5000000   0.1200000), wk =   0.0040733
        k(  394) = (  -0.8700000   0.5000000   0.1300000), wk =   0.0040733
        k(  395) = (  -0.8600000   0.5000000   0.1400000), wk =   0.0040733
        k(  396) = (  -0.8500000   0.5000000   0.1500000), wk =   0.0040733
        k(  397) = (  -0.8400000   0.5000000   0.1600000), wk =   0.0040733
        k(  398) = (  -0.8300000   0.5000000   0.1700000), wk =   0.0040733
        k(  399) = (  -0.8200000   0.5000000   0.1800000), wk =   0.0040733
        k(  400) = (  -0.8100000   0.5000000   0.1900000), wk =   0.0040733
        k(  401) = (  -0.8000000   0.5000000   0.2000000), wk =   0.0040733
        k(  402) = (  -0.7900000   0.5000000   0.2100000), wk =   0.0040733
        k(  403) = (  -0.7800000   0.5000000   0.2200000), wk =   0.0040733
        k(  404) = (  -0.7700000   0.5000000   0.2300000), wk =   0.0040733
        k(  405) = (  -0.7600000   0.5000000   0.2400000), wk =   0.0040733
        k(  406) = (  -0.7500000   0.5000000   0.2500000), wk =   0.0040733
        k(  407) = (  -0.7400000   0.5000000   0.2600000), wk =   0.0040733
        k(  408) = (  -0.7300000   0.5000000   0.2700000), wk =   0.0040733
        k(  409) = (  -0.7200000   0.5000000   0.2800000), wk =   0.0040733
        k(  410) = (  -0.7100000   0.5000000   0.2900000), wk =   0.0040733
        k(  411) = (  -0.7000000   0.5000000   0.3000000), wk =   0.0040733
        k(  412) = (  -0.6900000   0.5000000   0.3100000), wk =   0.0040733
        k(  413) = (  -0.6800000   0.5000000   0.3200000), wk =   0.0040733
        k(  414) = (  -0.6700000   0.5000000   0.3300000), wk =   0.0040733
        k(  415) = (  -0.6600000   0.5000000   0.3400000), wk =   0.0040733
        k(  416) = (  -0.6500000   0.5000000   0.3500000), wk =   0.0040733
        k(  417) = (  -0.6400000   0.5000000   0.3600000), wk =   0.0040733
        k(  418) = (  -0.6300000   0.5000000   0.3700000), wk =   0.0040733
        k(  419) = (  -0.6200000   0.5000000   0.3800000), wk =   0.0040733
        k(  420) = (  -0.6100000   0.5000000   0.3900000), wk =   0.0040733
        k(  421) = (  -0.6000000   0.5000000   0.4000000), wk =   0.0040733
        k(  422) = (  -0.5900000   0.5000000   0.4100000), wk =   0.0040733
        k(  423) = (  -0.5800000   0.5000000   0.4200000), wk =   0.0040733
        k(  424) = (  -0.5700000   0.5000000   0.4300000), wk =   0.0040733
        k(  425) = (  -0.5600000   0.5000000   0.4400000), wk =   0.0040733
        k(  426) = (  -0.5500000   0.5000000   0.4500000), wk =   0.0040733
        k(  427) = (  -0.5400000   0.5000000   0.4600000), wk =   0.0040733
        k(  428) = (  -0.5300000   0.5000000   0.4700000), wk =   0.0040733
        k(  429) = (  -0.5200000   0.5000000   0.4800000), wk =   0.0040733
        k(  430) = (  -0.5100000   0.5000000   0.4900000), wk =   0.0040733
        k(  431) = (  -0.5000000   0.5000000   0.5000000), wk =   0.0040733
        k(  432) = (  -0.5041667   0.5041667   0.4916667), wk =   0.0040733
        k(  433) = (  -0.5083333   0.5083333   0.4833333), wk =   0.0040733
        k(  434) = (  -0.5125000   0.5125000   0.4750000), wk =   0.0040733
        k(  435) = (  -0.5166667   0.5166667   0.4666667), wk =   0.0040733
        k(  436) = (  -0.5208333   0.5208333   0.4583333), wk =   0.0040733
        k(  437) = (  -0.5250000   0.5250000   0.4500000), wk =   0.0040733
        k(  438) = (  -0.5291667   0.5291667   0.4416667), wk =   0.0040733
        k(  439) = (  -0.5333333   0.5333333   0.4333333), wk =   0.0040733
        k(  440) = (  -0.5375000   0.5375000   0.4250000), wk =   0.0040733
        k(  441) = (  -0.5416667   0.5416667   0.4166667), wk =   0.0040733
        k(  442) = (  -0.5458333   0.5458333   0.4083333), wk =   0.0040733
        k(  443) = (  -0.5500000   0.5500000   0.4000000), wk =   0.0040733
        k(  444) = (  -0.5541667   0.5541667   0.3916667), wk =   0.0040733
        k(  445) = (  -0.5583333   0.5583333   0.3833333), wk =   0.0040733
        k(  446) = (  -0.5625000   0.5625000   0.3750000), wk =   0.0040733
        k(  447) = (  -0.5666667   0.5666667   0.3666667), wk =   0.0040733
        k(  448) = (  -0.5708333   0.5708333   0.3583333), wk =   0.0040733
        k(  449) = (  -0.5750000   0.5750000   0.3500000), wk =   0.0040733
        k(  450) = (  -0.5791667   0.5791667   0.3416667), wk =   0.0040733
        k(  451) = (  -0.5833333   0.5833333   0.3333333), wk =   0.0040733
        k(  452) = (  -0.5875000   0.5875000   0.3250000), wk =   0.0040733
        k(  453) = (  -0.5916667   0.5916667   0.3166667), wk =   0.0040733
        k(  454) = (  -0.5958333   0.5958333   0.3083333), wk =   0.0040733
        k(  455) = (  -0.6000000   0.6000000   0.3000000), wk =   0.0040733
        k(  456) = (  -0.6041667   0.6041667   0.2916667), wk =   0.0040733
        k(  457) = (  -0.6083333   0.6083333   0.2833333), wk =   0.0040733
        k(  458) = (  -0.6125000   0.6125000   0.2750000), wk =   0.0040733
        k(  459) = (  -0.6166667   0.6166667   0.2666667), wk =   0.0040733
        k(  460) = (  -0.6208333   0.6208333   0.2583333), wk =   0.0040733
        k(  461) = (  -0.6250000   0.6250000   0.2500000), wk =   0.0040733
        k(  462) = (  -0.6291667   0.6291667   0.2416667), wk =   0.0040733
        k(  463) = (  -0.6333333   0.6333333   0.2333333), wk =   0.0040733
        k(  464) = (  -0.6375000   0.6375000   0.2250000), wk =   0.0040733
        k(  465) = (  -0.6416667   0.6416667   0.2166667), wk =   0.0040733
        k(  466) = (  -0.6458333   0.6458333   0.2083333), wk =   0.0040733
        k(  467) = (  -0.6500000   0.6500000   0.2000000), wk =   0.0040733
        k(  468) = (  -0.6541667   0.6541667   0.1916667), wk =   0.0040733
        k(  469) = (  -0.6583333   0.6583333   0.1833333), wk =   0.0040733
        k(  470) = (  -0.6625000   0.6625000   0.1750000), wk =   0.0040733
        k(  471) = (  -0.6666667   0.6666667   0.1666667), wk =   0.0040733
        k(  472) = (  -0.6708333   0.6708333   0.1583333), wk =   0.0040733
        k(  473) = (  -0.6750000   0.6750000   0.1500000), wk =   0.0040733
        k(  474) = (  -0.6791667   0.6791667   0.1416667), wk =   0.0040733
        k(  475) = (  -0.6833333   0.6833333   0.1333333), wk =   0.0040733
        k(  476) = (  -0.6875000   0.6875000   0.1250000), wk =   0.0040733
        k(  477) = (  -0.6916667   0.6916667   0.1166667), wk =   0.0040733
        k(  478) = (  -0.6958333   0.6958333   0.1083333), wk =   0.0040733
        k(  479) = (  -0.7000000   0.7000000   0.1000000), wk =   0.0040733
        k(  480) = (  -0.7041667   0.7041667   0.0916667), wk =   0.0040733
        k(  481) = (  -0.7083333   0.7083333   0.0833333), wk =   0.0040733
        k(  482) = (  -0.7125000   0.7125000   0.0750000), wk =   0.0040733
        k(  483) = (  -0.7166667   0.7166667   0.0666667), wk =   0.0040733
        k(  484) = (  -0.7208333   0.7208333   0.0583333), wk =   0.0040733
        k(  485) = (  -0.7250000   0.7250000   0.0500000), wk =   0.0040733
        k(  486) = (  -0.7291667   0.7291667   0.0416667), wk =   0.0040733
        k(  487) = (  -0.7333333   0.7333333   0.0333333), wk =   0.0040733
        k(  488) = (  -0.7375000   0.7375000   0.0250000), wk =   0.0040733
        k(  489) = (  -0.7416667   0.7416667   0.0166667), wk =   0.0040733
        k(  490) = (  -0.7458333   0.7458333   0.0083333), wk =   0.0040733
        k(  491) = (  -0.7500000   0.7500000   0.0000000), wk =   0.0040733

                       cryst. coord.
        k(    1) = (   0.0000000   0.0000000   0.0000000), wk =   0.0040733
        k(    2) = (   0.0083333   0.0000000   0.0083333), wk =   0.0040733
        k(    3) = (   0.0166667   0.0000000   0.0166667), wk =   0.0040733
        k(    4) = (   0.0250000   0.0000000   0.0250000), wk =   0.0040733
        k(    5) = (   0.0333333   0.0000000   0.0333333), wk =   0.0040733
        k(    6) = (   0.0416667   0.0000000   0.0416667), wk =   0.0040733
        k(    7) = (   0.0500000   0.0000000   0.0500000), wk =   0.0040733
        k(    8) = (   0.0583333   0.0000000   0.0583333), wk =   0.0040733
        k(    9) = (   0.0666667   0.0000000   0.0666667), wk =   0.0040733
        k(   10) = (   0.0750000   0.0000000   0.0750000), wk =   0.0040733
        k(   11) = (   0.0833333   0.0000000   0.0833333), wk =   0.0040733
        k(   12) = (   0.0916667   0.0000000   0.0916667), wk =   0.0040733
        k(   13) = (   0.1000000   0.0000000   0.1000000), wk =   0.0040733
        k(   14) = (   0.1083333   0.0000000   0.1083333), wk =   0.0040733
        k(   15) = (   0.1166667   0.0000000   0.1166667), wk =   0.0040733
        k(   16) = (   0.1250000   0.0000000   0.1250000), wk =   0.0040733
        k(   17) = (   0.1333333   0.0000000   0.1333333), wk =   0.0040733
        k(   18) = (   0.1416667   0.0000000   0.1416667), wk =   0.0040733
        k(   19) = (   0.1500000   0.0000000   0.1500000), wk =   0.0040733
        k(   20) = (   0.1583333   0.0000000   0.1583333), wk =   0.0040733
        k(   21) = (   0.1666667   0.0000000   0.1666667), wk =   0.0040733
        k(   22) = (   0.1750000   0.0000000   0.1750000), wk =   0.0040733
        k(   23) = (   0.1833333   0.0000000   0.1833333), wk =   0.0040733
        k(   24) = (   0.1916667   0.0000000   0.1916667), wk =   0.0040733
        k(   25) = (   0.2000000   0.0000000   0.2000000), wk =   0.0040733
        k(   26) = (   0.2083333   0.0000000   0.2083333), wk =   0.0040733
        k(   27) = (   0.2166667   0.0000000   0.2166667), wk =   0.0040733
        k(   28) = (   0.2250000   0.0000000   0.2250000), wk =   0.0040733
        k(   29) = (   0.2333333   0.0000000   0.2333333), wk =   0.0040733
        k(   30) = (   0.2416667   0.0000000   0.2416667), wk =   0.0040733
        k(   31) = (   0.2500000   0.0000000   0.2500000), wk =   0.0040733
        k(   32) = (   0.2583333   0.0000000   0.2583333), wk =   0.0040733
        k(   33) = (   0.2666667   0.0000000   0.2666667), wk =   0.0040733
        k(   34) = (   0.2750000   0.0000000   0.2750000), wk =   0.0040733
        k(   35) = (   0.2833333   0.0000000   0.2833333), wk =   0.0040733
        k(   36) = (   0.2916667   0.0000000   0.2916667), wk =   0.0040733
        k(   37) = (   0.3000000   0.0000000   0.3000000), wk =   0.0040733
        k(   38) = (   0.3083333   0.0000000   0.3083333), wk =   0.0040733
        k(   39) = (   0.3166667   0.0000000   0.3166667), wk =   0.0040733
        k(   40) = (   0.3250000   0.0000000   0.3250000), wk =   0.0040733
        k(   41) = (   0.3333333   0.0000000   0.3333333), wk =   0.0040733
        k(   42) = (   0.3416667   0.0000000   0.3416667), wk =   0.0040733
        k(   43) = (   0.3500000   0.0000000   0.3500000), wk =   0.0040733
        k(   44) = (   0.3583333   0.0000000   0.3583333), wk =   0.0040733
        k(   45) = (   0.3666667   0.0000000   0.3666667), wk =   0.0040733
        k(   46) = (   0.3750000   0.0000000   0.3750000), wk =   0.0040733
        k(   47) = (   0.3833333   0.0000000   0.3833333), wk =   0.0040733
        k(   48) = (   0.3916667   0.0000000   0.3916667), wk =   0.0040733
        k(   49) = (   0.4000000   0.0000000   0.4000000), wk =   0.0040733
        k(   50) = (   0.4083333   0.0000000   0.4083333), wk =   0.0040733
        k(   51) = (   0.4166667   0.0000000   0.4166667), wk =   0.0040733
        k(   52) = (   0.4250000   0.0000000   0.4250000), wk =   0.0040733
        k(   53) = (   0.4333333   0.0000000   0.4333333), wk =   0.0040733
        k(   54) = (   0.4416667   0.0000000   0.4416667), wk =   0.0040733
        k(   55) = (   0.4500000   0.0000000   0.4500000), wk =   0.0040733
        k(   56) = (   0.4583333   0.0000000   0.4583333), wk =   0.0040733
        k(   57) = (   0.4666667   0.0000000   0.4666667), wk =   0.0040733
        k(   58) = (   0.4750000   0.0000000   0.4750000), wk =   0.0040733
        k(   59) = (   0.4833333   0.0000000   0.4833333), wk =   0.0040733
        k(   60) = (   0.4916667   0.0000000   0.4916667), wk =   0.0040733
        k(   61) = (   0.5000000   0.0000000   0.5000000), wk =   0.0040733
        k(   62) = (   0.5000000   0.0050000   0.5050000), wk =   0.0040733
        k(   63) = (   0.5000000   0.0100000   0.5100000), wk =   0.0040733
        k(   64) = (   0.5000000   0.0150000   0.5150000), wk =   0.0040733
        k(   65) = (   0.5000000   0.0200000   0.5200000), wk =   0.0040733
        k(   66) = (   0.5000000   0.0250000   0.5250000), wk =   0.0040733
        k(   67) = (   0.5000000   0.0300000   0.5300000), wk =   0.0040733
        k(   68) = (   0.5000000   0.0350000   0.5350000), wk =   0.0040733
        k(   69) = (   0.5000000   0.0400000   0.5400000), wk =   0.0040733
        k(   70) = (   0.5000000   0.0450000   0.5450000), wk =   0.0040733
        k(   71) = (   0.5000000   0.0500000   0.5500000), wk =   0.0040733
        k(   72) = (   0.5000000   0.0550000   0.5550000), wk =   0.0040733
        k(   73) = (   0.5000000   0.0600000   0.5600000), wk =   0.0040733
        k(   74) = (   0.5000000   0.0650000   0.5650000), wk =   0.0040733
        k(   75) = (   0.5000000   0.0700000   0.5700000), wk =   0.0040733
        k(   76) = (   0.5000000   0.0750000   0.5750000), wk =   0.0040733
        k(   77) = (   0.5000000   0.0800000   0.5800000), wk =   0.0040733
        k(   78) = (   0.5000000   0.0850000   0.5850000), wk =   0.0040733
        k(   79) = (   0.5000000   0.0900000   0.5900000), wk =   0.0040733
        k(   80) = (   0.5000000   0.0950000   0.5950000), wk =   0.0040733
        k(   81) = (   0.5000000   0.1000000   0.6000000), wk =   0.0040733
        k(   82) = (   0.5000000   0.1050000   0.6050000), wk =   0.0040733
        k(   83) = (   0.5000000   0.1100000   0.6100000), wk =   0.0040733
        k(   84) = (   0.5000000   0.1150000   0.6150000), wk =   0.0040733
        k(   85) = (   0.5000000   0.1200000   0.6200000), wk =   0.0040733
        k(   86) = (   0.5000000   0.1250000   0.6250000), wk =   0.0040733
        k(   87) = (   0.5000000   0.1300000   0.6300000), wk =   0.0040733
        k(   88) = (   0.5000000   0.1350000   0.6350000), wk =   0.0040733
        k(   89) = (   0.5000000   0.1400000   0.6400000), wk =   0.0040733
        k(   90) = (   0.5000000   0.1450000   0.6450000), wk =   0.0040733
        k(   91) = (   0.5000000   0.1500000   0.6500000), wk =   0.0040733
        k(   92) = (   0.5000000   0.1550000   0.6550000), wk =   0.0040733
        k(   93) = (   0.5000000   0.1600000   0.6600000), wk =   0.0040733
        k(   94) = (   0.5000000   0.1650000   0.6650000), wk =   0.0040733
        k(   95) = (   0.5000000   0.1700000   0.6700000), wk =   0.0040733
        k(   96) = (   0.5000000   0.1750000   0.6750000), wk =   0.0040733
        k(   97) = (   0.5000000   0.1800000   0.6800000), wk =   0.0040733
        k(   98) = (   0.5000000   0.1850000   0.6850000), wk =   0.0040733
        k(   99) = (   0.5000000   0.1900000   0.6900000), wk =   0.0040733
        k(  100) = (   0.5000000   0.1950000   0.6950000), wk =   0.0040733
        k(  101) = (   0.5000000   0.2000000   0.7000000), wk =   0.0040733
        k(  102) = (   0.5000000   0.2050000   0.7050000), wk =   0.0040733
        k(  103) = (   0.5000000   0.2100000   0.7100000), wk =   0.0040733
        k(  104) = (   0.5000000   0.2150000   0.7150000), wk =   0.0040733
        k(  105) = (   0.5000000   0.2200000   0.7200000), wk =   0.0040733
        k(  106) = (   0.5000000   0.2250000   0.7250000), wk =   0.0040733
        k(  107) = (   0.5000000   0.2300000   0.7300000), wk =   0.0040733
        k(  108) = (   0.5000000   0.2350000   0.7350000), wk =   0.0040733
        k(  109) = (   0.5000000   0.2400000   0.7400000), wk =   0.0040733
        k(  110) = (   0.5000000   0.2450000   0.7450000), wk =   0.0040733
        k(  111) = (   0.5000000   0.2500000   0.7500000), wk =   0.0040733
        k(  112) = (   0.4975000   0.2525000   0.7500000), wk =   0.0040733
        k(  113) = (   0.4950000   0.2550000   0.7500000), wk =   0.0040733
        k(  114) = (   0.4925000   0.2575000   0.7500000), wk =   0.0040733
        k(  115) = (   0.4900000   0.2600000   0.7500000), wk =   0.0040733
        k(  116) = (   0.4875000   0.2625000   0.7500000), wk =   0.0040733
        k(  117) = (   0.4850000   0.2650000   0.7500000), wk =   0.0040733
        k(  118) = (   0.4825000   0.2675000   0.7500000), wk =   0.0040733
        k(  119) = (   0.4800000   0.2700000   0.7500000), wk =   0.0040733
        k(  120) = (   0.4775000   0.2725000   0.7500000), wk =   0.0040733
        k(  121) = (   0.4750000   0.2750000   0.7500000), wk =   0.0040733
        k(  122) = (   0.4725000   0.2775000   0.7500000), wk =   0.0040733
        k(  123) = (   0.4700000   0.2800000   0.7500000), wk =   0.0040733
        k(  124) = (   0.4675000   0.2825000   0.7500000), wk =   0.0040733
        k(  125) = (   0.4650000   0.2850000   0.7500000), wk =   0.0040733
        k(  126) = (   0.4625000   0.2875000   0.7500000), wk =   0.0040733
        k(  127) = (   0.4600000   0.2900000   0.7500000), wk =   0.0040733
        k(  128) = (   0.4575000   0.2925000   0.7500000), wk =   0.0040733
        k(  129) = (   0.4550000   0.2950000   0.7500000), wk =   0.0040733
        k(  130) = (   0.4525000   0.2975000   0.7500000), wk =   0.0040733
        k(  131) = (   0.4500000   0.3000000   0.7500000), wk =   0.0040733
        k(  132) = (   0.4475000   0.3025000   0.7500000), wk =   0.0040733
        k(  133) = (   0.4450000   0.3050000   0.7500000), wk =   0.0040733
        k(  134) = (   0.4425000   0.3075000   0.7500000), wk =   0.0040733
        k(  135) = (   0.4400000   0.3100000   0.7500000), wk =   0.0040733
        k(  136) = (   0.4375000   0.3125000   0.7500000), wk =   0.0040733
        k(  137) = (   0.4350000   0.3150000   0.7500000), wk =   0.0040733
        k(  138) = (   0.4325000   0.3175000   0.7500000), wk =   0.0040733
        k(  139) = (   0.4300000   0.3200000   0.7500000), wk =   0.0040733
        k(  140) = (   0.4275000   0.3225000   0.7500000), wk =   0.0040733
        k(  141) = (   0.4250000   0.3250000   0.7500000), wk =   0.0040733
        k(  142) = (   0.4225000   0.3275000   0.7500000), wk =   0.0040733
        k(  143) = (   0.4200000   0.3300000   0.7500000), wk =   0.0040733
        k(  144) = (   0.4175000   0.3325000   0.7500000), wk =   0.0040733
        k(  145) = (   0.4150000   0.3350000   0.7500000), wk =   0.0040733
        k(  146) = (   0.4125000   0.3375000   0.7500000), wk =   0.0040733
        k(  147) = (   0.4100000   0.3400000   0.7500000), wk =   0.0040733
        k(  148) = (   0.4075000   0.3425000   0.7500000), wk =   0.0040733
        k(  149) = (   0.4050000   0.3450000   0.7500000), wk =   0.0040733
        k(  150) = (   0.4025000   0.3475000   0.7500000), wk =   0.0040733
        k(  151) = (   0.4000000   0.3500000   0.7500000), wk =   0.0040733
        k(  152) = (   0.3975000   0.3525000   0.7500000), wk =   0.0040733
        k(  153) = (   0.3950000   0.3550000   0.7500000), wk =   0.0040733
        k(  154) = (   0.3925000   0.3575000   0.7500000), wk =   0.0040733
        k(  155) = (   0.3900000   0.3600000   0.7500000), wk =   0.0040733
        k(  156) = (   0.3875000   0.3625000   0.7500000), wk =   0.0040733
        k(  157) = (   0.3850000   0.3650000   0.7500000), wk =   0.0040733
        k(  158) = (   0.3825000   0.3675000   0.7500000), wk =   0.0040733
        k(  159) = (   0.3800000   0.3700000   0.7500000), wk =   0.0040733
        k(  160) = (   0.3775000   0.3725000   0.7500000), wk =   0.0040733
        k(  161) = (   0.3750000   0.3750000   0.7500000), wk =   0.0040733
        k(  162) = (   0.3675000   0.3675000   0.7350000), wk =   0.0040733
        k(  163) = (   0.3600000   0.3600000   0.7200000), wk =   0.0040733
        k(  164) = (   0.3525000   0.3525000   0.7050000), wk =   0.0040733
        k(  165) = (   0.3450000   0.3450000   0.6900000), wk =   0.0040733
        k(  166) = (   0.3375000   0.3375000   0.6750000), wk =   0.0040733
        k(  167) = (   0.3300000   0.3300000   0.6600000), wk =   0.0040733
        k(  168) = (   0.3225000   0.3225000   0.6450000), wk =   0.0040733
        k(  169) = (   0.3150000   0.3150000   0.6300000), wk =   0.0040733
        k(  170) = (   0.3075000   0.3075000   0.6150000), wk =   0.0040733
        k(  171) = (   0.3000000   0.3000000   0.6000000), wk =   0.0040733
        k(  172) = (   0.2925000   0.2925000   0.5850000), wk =   0.0040733
        k(  173) = (   0.2850000   0.2850000   0.5700000), wk =   0.0040733
        k(  174) = (   0.2775000   0.2775000   0.5550000), wk =   0.0040733
        k(  175) = (   0.2700000   0.2700000   0.5400000), wk =   0.0040733
        k(  176) = (   0.2625000   0.2625000   0.5250000), wk =   0.0040733
        k(  177) = (   0.2550000   0.2550000   0.5100000), wk =   0.0040733
        k(  178) = (   0.2475000   0.2475000   0.4950000), wk =   0.0040733
        k(  179) = (   0.2400000   0.2400000   0.4800000), wk =   0.0040733
        k(  180) = (   0.2325000   0.2325000   0.4650000), wk =   0.0040733
        k(  181) = (   0.2250000   0.2250000   0.4500000), wk =   0.0040733
        k(  182) = (   0.2175000   0.2175000   0.4350000), wk =   0.0040733
        k(  183) = (   0.2100000   0.2100000   0.4200000), wk =   0.0040733
        k(  184) = (   0.2025000   0.2025000   0.4050000), wk =   0.0040733
        k(  185) = (   0.1950000   0.1950000   0.3900000), wk =   0.0040733
        k(  186) = (   0.1875000   0.1875000   0.3750000), wk =   0.0040733
        k(  187) = (   0.1800000   0.1800000   0.3600000), wk =   0.0040733
        k(  188) = (   0.1725000   0.1725000   0.3450000), wk =   0.0040733
        k(  189) = (   0.1650000   0.1650000   0.3300000), wk =   0.0040733
        k(  190) = (   0.1575000   0.1575000   0.3150000), wk =   0.0040733
        k(  191) = (   0.1500000   0.1500000   0.3000000), wk =   0.0040733
        k(  192) = (   0.1425000   0.1425000   0.2850000), wk =   0.0040733
        k(  193) = (   0.1350000   0.1350000   0.2700000), wk =   0.0040733
        k(  194) = (   0.1275000   0.1275000   0.2550000), wk =   0.0040733
        k(  195) = (   0.1200000   0.1200000   0.2400000), wk =   0.0040733
        k(  196) = (   0.1125000   0.1125000   0.2250000), wk =   0.0040733
        k(  197) = (   0.1050000   0.1050000   0.2100000), wk =   0.0040733
        k(  198) = (   0.0975000   0.0975000   0.1950000), wk =   0.0040733
        k(  199) = (   0.0900000   0.0900000   0.1800000), wk =   0.0040733
        k(  200) = (   0.0825000   0.0825000   0.1650000), wk =   0.0040733
        k(  201) = (   0.0750000   0.0750000   0.1500000), wk =   0.0040733
        k(  202) = (   0.0675000   0.0675000   0.1350000), wk =   0.0040733
        k(  203) = (   0.0600000   0.0600000   0.1200000), wk =   0.0040733
        k(  204) = (   0.0525000   0.0525000   0.1050000), wk =   0.0040733
        k(  205) = (   0.0450000   0.0450000   0.0900000), wk =   0.0040733
        k(  206) = (   0.0375000   0.0375000   0.0750000), wk =   0.0040733
        k(  207) = (   0.0300000   0.0300000   0.0600000), wk =   0.0040733
        k(  208) = (   0.0225000   0.0225000   0.0450000), wk =   0.0040733
        k(  209) = (   0.0150000   0.0150000   0.0300000), wk =   0.0040733
        k(  210) = (   0.0075000   0.0075000   0.0150000), wk =   0.0040733
        k(  211) = (   0.0000000   0.0000000   0.0000000), wk =   0.0040733
        k(  212) = (   0.0083333   0.0083333   0.0083333), wk =   0.0040733
        k(  213) = (   0.0166667   0.0166667   0.0166667), wk =   0.0040733
        k(  214) = (   0.0250000   0.0250000   0.0250000), wk =   0.0040733
        k(  215) = (   0.0333333   0.0333333   0.0333333), wk =   0.0040733
        k(  216) = (   0.0416667   0.0416667   0.0416667), wk =   0.0040733
        k(  217) = (   0.0500000   0.0500000   0.0500000), wk =   0.0040733
        k(  218) = (   0.0583333   0.0583333   0.0583333), wk =   0.0040733
        k(  219) = (   0.0666667   0.0666667   0.0666667), wk =   0.0040733
        k(  220) = (   0.0750000   0.0750000   0.0750000), wk =   0.0040733
        k(  221) = (   0.0833333   0.0833333   0.0833333), wk =   0.0040733
        k(  222) = (   0.0916667   0.0916667   0.0916667), wk =   0.0040733
        k(  223) = (   0.1000000   0.1000000   0.1000000), wk =   0.0040733
        k(  224) = (   0.1083333   0.1083333   0.1083333), wk =   0.0040733
        k(  225) = (   0.1166667   0.1166667   0.1166667), wk =   0.0040733
        k(  226) = (   0.1250000   0.1250000   0.1250000), wk =   0.0040733
        k(  227) = (   0.1333333   0.1333333   0.1333333), wk =   0.0040733
        k(  228) = (   0.1416667   0.1416667   0.1416667), wk =   0.0040733
        k(  229) = (   0.1500000   0.1500000   0.1500000), wk =   0.0040733
        k(  230) = (   0.1583333   0.1583333   0.1583333), wk =   0.0040733
        k(  231) = (   0.1666667   0.1666667   0.1666667), wk =   0.0040733
        k(  232) = (   0.1750000   0.1750000   0.1750000), wk =   0.0040733
        k(  233) = (   0.1833333   0.1833333   0.1833333), wk =   0.0040733
        k(  234) = (   0.1916667   0.1916667   0.1916667), wk =   0.0040733
        k(  235) = (   0.2000000   0.2000000   0.2000000), wk =   0.0040733
        k(  236) = (   0.2083333   0.2083333   0.2083333), wk =   0.0040733
        k(  237) = (   0.2166667   0.2166667   0.2166667), wk =   0.0040733
        k(  238) = (   0.2250000   0.2250000   0.2250000), wk =   0.0040733
        k(  239) = (   0.2333333   0.2333333   0.2333333), wk =   0.0040733
        k(  240) = (   0.2416667   0.2416667   0.2416667), wk =   0.0040733
        k(  241) = (   0.2500000   0.2500000   0.2500000), wk =   0.0040733
        k(  242) = (   0.2583333   0.2583333   0.2583333), wk =   0.0040733
        k(  243) = (   0.2666667   0.2666667   0.2666667), wk =   0.0040733
        k(  244) = (   0.2750000   0.2750000   0.2750000), wk =   0.0040733
        k(  245) = (   0.2833333   0.2833333   0.2833333), wk =   0.0040733
        k(  246) = (   0.2916667   0.2916667   0.2916667), wk =   0.0040733
        k(  247) = (   0.3000000   0.3000000   0.3000000), wk =   0.0040733
        k(  248) = (   0.3083333   0.3083333   0.3083333), wk =   0.0040733
        k(  249) = (   0.3166667   0.3166667   0.3166667), wk =   0.0040733
        k(  250) = (   0.3250000   0.3250000   0.3250000), wk =   0.0040733
        k(  251) = (   0.3333333   0.3333333   0.3333333), wk =   0.0040733
        k(  252) = (   0.3416667   0.3416667   0.3416667), wk =   0.0040733
        k(  253) = (   0.3500000   0.3500000   0.3500000), wk =   0.0040733
        k(  254) = (   0.3583333   0.3583333   0.3583333), wk =   0.0040733
        k(  255) = (   0.3666667   0.3666667   0.3666667), wk =   0.0040733
        k(  256) = (   0.3750000   0.3750000   0.3750000), wk =   0.0040733
        k(  257) = (   0.3833333   0.3833333   0.3833333), wk =   0.0040733
        k(  258) = (   0.3916667   0.3916667   0.3916667), wk =   0.0040733
        k(  259) = (   0.4000000   0.4000000   0.4000000), wk =   0.0040733
        k(  260) = (   0.4083333   0.4083333   0.4083333), wk =   0.0040733
        k(  261) = (   0.4166667   0.4166667   0.4166667), wk =   0.0040733
        k(  262) = (   0.4250000   0.4250000   0.4250000), wk =   0.0040733
        k(  263) = (   0.4333333   0.4333333   0.4333333), wk =   0.0040733
        k(  264) = (   0.4416667   0.4416667   0.4416667), wk =   0.0040733
        k(  265) = (   0.4500000   0.4500000   0.4500000), wk =   0.0040733
        k(  266) = (   0.4583333   0.4583333   0.4583333), wk =   0.0040733
        k(  267) = (   0.4666667   0.4666667   0.4666667), wk =   0.0040733
        k(  268) = (   0.4750000   0.4750000   0.4750000), wk =   0.0040733
        k(  269) = (   0.4833333   0.4833333   0.4833333), wk =   0.0040733
        k(  270) = (   0.4916667   0.4916667   0.4916667), wk =   0.0040733
        k(  271) = (   0.5000000   0.5000000   0.5000000), wk =   0.0040733
        k(  272) = (   0.5020833   0.4958333   0.5020833), wk =   0.0040733
        k(  273) = (   0.5041667   0.4916667   0.5041667), wk =   0.0040733
        k(  274) = (   0.5062500   0.4875000   0.5062500), wk =   0.0040733
        k(  275) = (   0.5083333   0.4833333   0.5083333), wk =   0.0040733
        k(  276) = (   0.5104167   0.4791667   0.5104167), wk =   0.0040733
        k(  277) = (   0.5125000   0.4750000   0.5125000), wk =   0.0040733
        k(  278) = (   0.5145833   0.4708333   0.5145833), wk =   0.0040733
        k(  279) = (   0.5166667   0.4666667   0.5166667), wk =   0.0040733
        k(  280) = (   0.5187500   0.4625000   0.5187500), wk =   0.0040733
        k(  281) = (   0.5208333   0.4583333   0.5208333), wk =   0.0040733
        k(  282) = (   0.5229167   0.4541667   0.5229167), wk =   0.0040733
        k(  283) = (   0.5250000   0.4500000   0.5250000), wk =   0.0040733
        k(  284) = (   0.5270833   0.4458333   0.5270833), wk =   0.0040733
        k(  285) = (   0.5291667   0.4416667   0.5291667), wk =   0.0040733
        k(  286) = (   0.5312500   0.4375000   0.5312500), wk =   0.0040733
        k(  287) = (   0.5333333   0.4333333   0.5333333), wk =   0.0040733
        k(  288) = (   0.5354167   0.4291667   0.5354167), wk =   0.0040733
        k(  289) = (   0.5375000   0.4250000   0.5375000), wk =   0.0040733
        k(  290) = (   0.5395833   0.4208333   0.5395833), wk =   0.0040733
        k(  291) = (   0.5416667   0.4166667   0.5416667), wk =   0.0040733
        k(  292) = (   0.5437500   0.4125000   0.5437500), wk =   0.0040733
        k(  293) = (   0.5458333   0.4083333   0.5458333), wk =   0.0040733
        k(  294) = (   0.5479167   0.4041667   0.5479167), wk =   0.0040733
        k(  295) = (   0.5500000   0.4000000   0.5500000), wk =   0.0040733
        k(  296) = (   0.5520833   0.3958333   0.5520833), wk =   0.0040733
        k(  297) = (   0.5541667   0.3916667   0.5541667), wk =   0.0040733
        k(  298) = (   0.5562500   0.3875000   0.5562500), wk =   0.0040733
        k(  299) = (   0.5583333   0.3833333   0.5583333), wk =   0.0040733
        k(  300) = (   0.5604167   0.3791667   0.5604167), wk =   0.0040733
        k(  301) = (   0.5625000   0.3750000   0.5625000), wk =   0.0040733
        k(  302) = (   0.5645833   0.3708333   0.5645833), wk =   0.0040733
        k(  303) = (   0.5666667   0.3666667   0.5666667), wk =   0.0040733
        k(  304) = (   0.5687500   0.3625000   0.5687500), wk =   0.0040733
        k(  305) = (   0.5708333   0.3583333   0.5708333), wk =   0.0040733
        k(  306) = (   0.5729167   0.3541667   0.5729167), wk =   0.0040733
        k(  307) = (   0.5750000   0.3500000   0.5750000), wk =   0.0040733
        k(  308) = (   0.5770833   0.3458333   0.5770833), wk =   0.0040733
        k(  309) = (   0.5791667   0.3416667   0.5791667), wk =   0.0040733
        k(  310) = (   0.5812500   0.3375000   0.5812500), wk =   0.0040733
        k(  311) = (   0.5833333   0.3333333   0.5833333), wk =   0.0040733
        k(  312) = (   0.5854167   0.3291667   0.5854167), wk =   0.0040733
        k(  313) = (   0.5875000   0.3250000   0.5875000), wk =   0.0040733
        k(  314) = (   0.5895833   0.3208333   0.5895833), wk =   0.0040733
        k(  315) = (   0.5916667   0.3166667   0.5916667), wk =   0.0040733
        k(  316) = (   0.5937500   0.3125000   0.5937500), wk =   0.0040733
        k(  317) = (   0.5958333   0.3083333   0.5958333), wk =   0.0040733
        k(  318) = (   0.5979167   0.3041667   0.5979167), wk =   0.0040733
        k(  319) = (   0.6000000   0.3000000   0.6000000), wk =   0.0040733
        k(  320) = (   0.6020833   0.2958333   0.6020833), wk =   0.0040733
        k(  321) = (   0.6041667   0.2916667   0.6041667), wk =   0.0040733
        k(  322) = (   0.6062500   0.2875000   0.6062500), wk =   0.0040733
        k(  323) = (   0.6083333   0.2833333   0.6083333), wk =   0.0040733
        k(  324) = (   0.6104167   0.2791667   0.6104167), wk =   0.0040733
        k(  325) = (   0.6125000   0.2750000   0.6125000), wk =   0.0040733
        k(  326) = (   0.6145833   0.2708333   0.6145833), wk =   0.0040733
        k(  327) = (   0.6166667   0.2666667   0.6166667), wk =   0.0040733
        k(  328) = (   0.6187500   0.2625000   0.6187500), wk =   0.0040733
        k(  329) = (   0.6208333   0.2583333   0.6208333), wk =   0.0040733
        k(  330) = (   0.6229167   0.2541667   0.6229167), wk =   0.0040733
        k(  331) = (   0.6250000   0.2500000   0.6250000), wk =   0.0040733
        k(  332) = (   0.6225000   0.2500000   0.6275000), wk =   0.0040733
        k(  333) = (   0.6200000   0.2500000   0.6300000), wk =   0.0040733
        k(  334) = (   0.6175000   0.2500000   0.6325000), wk =   0.0040733
        k(  335) = (   0.6150000   0.2500000   0.6350000), wk =   0.0040733
        k(  336) = (   0.6125000   0.2500000   0.6375000), wk =   0.0040733
        k(  337) = (   0.6100000   0.2500000   0.6400000), wk =   0.0040733
        k(  338) = (   0.6075000   0.2500000   0.6425000), wk =   0.0040733
        k(  339) = (   0.6050000   0.2500000   0.6450000), wk =   0.0040733
        k(  340) = (   0.6025000   0.2500000   0.6475000), wk =   0.0040733
        k(  341) = (   0.6000000   0.2500000   0.6500000), wk =   0.0040733
        k(  342) = (   0.5975000   0.2500000   0.6525000), wk =   0.0040733
        k(  343) = (   0.5950000   0.2500000   0.6550000), wk =   0.0040733
        k(  344) = (   0.5925000   0.2500000   0.6575000), wk =   0.0040733
        k(  345) = (   0.5900000   0.2500000   0.6600000), wk =   0.0040733
        k(  346) = (   0.5875000   0.2500000   0.6625000), wk =   0.0040733
        k(  347) = (   0.5850000   0.2500000   0.6650000), wk =   0.0040733
        k(  348) = (   0.5825000   0.2500000   0.6675000), wk =   0.0040733
        k(  349) = (   0.5800000   0.2500000   0.6700000), wk =   0.0040733
        k(  350) = (   0.5775000   0.2500000   0.6725000), wk =   0.0040733
        k(  351) = (   0.5750000   0.2500000   0.6750000), wk =   0.0040733
        k(  352) = (   0.5725000   0.2500000   0.6775000), wk =   0.0040733
        k(  353) = (   0.5700000   0.2500000   0.6800000), wk =   0.0040733
        k(  354) = (   0.5675000   0.2500000   0.6825000), wk =   0.0040733
        k(  355) = (   0.5650000   0.2500000   0.6850000), wk =   0.0040733
        k(  356) = (   0.5625000   0.2500000   0.6875000), wk =   0.0040733
        k(  357) = (   0.5600000   0.2500000   0.6900000), wk =   0.0040733
        k(  358) = (   0.5575000   0.2500000   0.6925000), wk =   0.0040733
        k(  359) = (   0.5550000   0.2500000   0.6950000), wk =   0.0040733
        k(  360) = (   0.5525000   0.2500000   0.6975000), wk =   0.0040733
        k(  361) = (   0.5500000   0.2500000   0.7000000), wk =   0.0040733
        k(  362) = (   0.5475000   0.2500000   0.7025000), wk =   0.0040733
        k(  363) = (   0.5450000   0.2500000   0.7050000), wk =   0.0040733
[...]
    31.8751  31.9070  34.0028  34.5566  35.0506  35.4399  36.9164  37.5729

          k =-0.5542 0.5542 0.3917 (  3825 PWs)   bands (ev):

    -5.7178  -1.6193   2.9004   3.2861   6.6022   9.0608   9.5047  11.9957
    14.2592  15.3121  15.6028  16.7394  17.6952  18.6032  23.2542  24.4589
    24.4781  25.5431  27.0040  27.0697  28.4267  28.6095  30.2505  31.0482
    31.9094  31.9612  33.9633  34.4013  35.0286  35.5249  36.9225  37.5806

          k =-0.5583 0.5583 0.3833 (  3825 PWs)   bands (ev):

    -5.7098  -1.6129   2.8361   3.2707   6.6602   9.0368   9.5398  12.0070
    14.2464  15.2793  15.5907  16.7452  17.7418  18.7017  23.2108  24.4203
    24.4539  25.5499  27.0398  27.1202  28.3036  28.5110  30.2784  31.0910
    31.9416  32.0171  33.8871  34.2422  35.0462  35.6177  36.9319  37.5828

          k =-0.5625 0.5625 0.3750 (  3827 PWs)   bands (ev):

    -5.7012  -1.6060   2.7699   3.2545   6.7186   9.0138   9.5772  12.0151
    14.2351  15.2456  15.5769  16.7589  17.7901  18.8000  23.1639  24.3801
    24.4311  25.5567  27.0754  27.1722  28.1801  28.4121  30.3068  31.1366
    31.9716  32.0747  33.7808  34.0809  35.0971  35.7168  36.9443  37.5790

          k =-0.5667 0.5667 0.3667 (  3829 PWs)   bands (ev):

    -5.6921  -1.5987   2.7022   3.2375   6.7767   8.9925   9.6168  12.0196
    14.2250  15.2113  15.5628  16.7799  17.8401  18.8979  23.1138  24.3384
    24.4099  25.5634  27.1106  27.2252  28.0571  28.3136  30.3357  31.1845
    31.9993  32.1342  33.6529  33.9186  35.1724  35.8211  36.9597  37.5688

          k =-0.5708 0.5708 0.3583 (  3831 PWs)   bands (ev):

    -5.6824  -1.5911   2.6333   3.2197   6.8340   8.9732   9.6586  12.0202
    14.2159  15.1765  15.5498  16.8071  17.8914  18.9953  23.0607  24.2953
    24.3904  25.5698  27.1448  27.2781  27.9360  28.2161  30.3652  31.2343
    32.0247  32.1956  33.5111  33.7560  35.2642  35.9298  36.9780  37.5512

          k =-0.5750 0.5750 0.3500 (  3829 PWs)   bands (ev):

    -5.6722  -1.5832   2.5634   3.2011   6.8899   8.9566   9.7025  12.0167
    14.2071  15.1413  15.5392  16.8398  17.9439  19.0919  23.0047  24.2508
    24.3726  25.5761  27.1775  27.3285  27.8195  28.1207  30.3951  31.2857
    32.0474  32.2591  33.3609  33.5937  35.3669  36.0423  36.9994  37.5254

          k =-0.5792 0.5792 0.3417 (  3830 PWs)   bands (ev):

    -5.6614  -1.5749   2.4928   3.1819   6.9437   8.9431   9.7485  12.0088
    14.1983  15.1059  15.5326  16.8772  17.9974  19.1876  22.9462  24.2049
    24.3564  25.5819  27.2081  27.3698  27.7143  28.0283  30.4254  31.3382
    32.0669  32.3246  33.2063  33.4324  35.4767  36.1578  37.0240  37.4901

          k =-0.5833 0.5833 0.3333 (  3823 PWs)   bands (ev):

    -5.6502  -1.5664   2.4217   3.1621   6.9949   8.9334   9.7965  11.9965
    14.1885  15.0704  15.5312  16.9185  18.0518  19.2822  22.8853  24.1576
    24.3418  25.5872  27.2354  27.3823  27.6405  27.9405  30.4560  31.3917
    32.0820  32.3919  33.0508  33.2730  35.5904  36.2758  37.0522  37.4441

          k =-0.5875 0.5875 0.3250 (  3827 PWs)   bands (ev):

    -5.6385  -1.5576   2.3502   3.1417   7.0429   8.9279   9.8464  11.9800
    14.1773  15.0349  15.5362  16.9631  18.1070  19.3755  22.8224  24.1090
    24.3287  25.5919  27.2578  27.3359  27.6284  27.8592  30.4867  31.4455
    32.0906  32.4600  32.8980  33.1173  35.7057  36.3952  37.0843  37.3864

          k =-0.5917 0.5917 0.3167 (  3827 PWs)   bands (ev):

    -5.6263  -1.5485   2.2786   3.1207   7.0871   8.9271   9.8982  11.9592
    14.1638  14.9994  15.5486  17.0105  18.1629  19.4672  22.7578  24.0590
    24.3169  25.5958  27.2453  27.2729  27.6635  27.7873  30.5173  31.4993
    32.0885  32.5258  32.7535  32.9690  35.8209  36.5147  37.1206  37.3167

          k =-0.5958 0.5958 0.3083 (  3823 PWs)   bands (ev):

    -5.6136  -1.5393   2.2071   3.0993   7.1270   8.9316   9.9518  11.9345
    14.1477  14.9642  15.5691  17.0603  18.2192  19.5572  22.6917  24.0076
    24.3064  25.5987  27.1393  27.2773  27.7171  27.7288  30.5475  31.5525
    32.0680  32.5757  32.6257  32.8429  35.9339  36.6312  37.1619  37.2367

          k =-0.6000 0.6000 0.3000 (  3827 PWs)   bands (ev):

    -5.6004  -1.5299   2.1358   3.0775   7.1621   8.9415  10.0071  11.9062
    14.1284  14.9291  15.5981  17.1119  18.2758  19.6452  22.6245  23.9546
    24.2969  25.6004  27.0292  27.2674  27.6876  27.7781  30.5769  31.6041
    32.0175  32.5268  32.5551  32.7947  36.0434  36.7360  37.1546  37.2084

          k =-0.6042 0.6042 0.2917 (  3827 PWs)   bands (ev):

    -5.5869  -1.5204   2.0648   3.0553   7.1921   8.9572  10.0642  11.8745
    14.1059  14.8945  15.6357  17.1652  18.3328  19.7309  22.5563  23.9002
    24.2884  25.6008  26.9189  27.2420  27.6656  27.8428  30.6051  31.6524
    31.9290  32.4504  32.4654  32.8403  36.1478  36.7974  37.1022  37.2607

          k =-0.6083 0.6083 0.2833 (  3827 PWs)   bands (ev):

    -5.5729  -1.5108   1.9944   3.0327   7.2169   8.9788  10.1228  11.8399
    14.0801  14.8602  15.6818  17.2199  18.3898  19.8141  22.4875  23.8441
    24.2806  25.5996  26.8101  27.2037  27.6605  27.9096  30.6316  31.6941
    31.8078  32.3282  32.4367  32.9170  36.2459  36.7588  37.1370  37.3190

          k =-0.6125 0.6125 0.2750 (  3829 PWs)   bands (ev):

    -5.5585  -1.5012   1.9246   3.0099   7.2363   9.0061  10.1830  11.8028
    14.0512  14.8264  15.7362  17.2756  18.4468  19.8945  22.4183  23.7863
    24.2734  25.5968  26.7037  27.1578  27.6676  27.9780  30.6556  31.6659
    31.7217  32.2171  32.4289  33.0043  36.3367  36.6458  37.2344  37.3832

          k =-0.6167 0.6167 0.2667 (  3835 PWs)   bands (ev):

    -5.5438  -1.4916   1.8557   2.9869   7.2504   9.0390  10.2446  11.7635
    14.0194  14.7932  15.7982  17.3322  18.5037  19.9716  22.3491  23.7267
    24.2666  25.5921  26.6002  27.1092  27.6824  28.0472  30.6762  31.5128
    31.7207  32.1373  32.4330  33.0974  36.4198  36.5030  37.3514  37.4529

          k =-0.6208 0.6208 0.2583 (  3835 PWs)   bands (ev):

    -5.5286  -1.4820   1.7878   2.9637   7.2595   9.0770  10.3076  11.7226
    13.9852  14.7606  15.8675  17.3895  18.5603  20.0453  22.2800  23.6654
    24.2601  25.5857  26.5002  27.0614  27.7018  28.1170  30.6919  31.3541
    31.6767  32.1063  32.4438  33.1949  36.3454  36.4950  37.4745  37.5271

          k =-0.6250 0.6250 0.2500 (  3839 PWs)   bands (ev):

    -5.5132  -1.4726   1.7209   2.9403   7.2638   9.1197  10.3719  11.6805
    13.9487  14.7286  15.9434  17.4472  18.6165  20.1151  22.2114  23.6021
    24.2535  25.5774  26.4038  27.0168  27.7236  28.1870  30.7007  31.1926
    31.5975  32.1189  32.4587  33.2958  36.1787  36.5626  37.5993  37.6043

          k =-0.6292 0.6292 0.2417 (  3837 PWs)   bands (ev):

    -5.4974  -1.4633   1.6553   2.9168   7.2637   9.1664  10.4375  11.6378
    13.9105  14.6974  16.0253  17.5054  18.6722  20.1807  22.1435  23.5369
    24.2468  25.5675  26.3116  26.9769  27.7465  28.2569  30.7000  31.0304
    31.5049  32.1565  32.4762  33.3997  36.0061  36.6233  37.6828  37.7236

          k =-0.6333 0.6333 0.2333 (  3838 PWs)   bands (ev):

    -5.4814  -1.4543   1.5911   2.8933   7.2598   9.2164  10.5043  11.5949
    13.8708  14.6670  16.1126  17.5638  18.7273  20.2416  22.0767  23.4697
    24.2397  25.5563  26.2237  26.9426  27.7694  28.3261  30.6861  30.8686
    31.4151  32.2069  32.4954  33.5059  35.8297  36.6779  37.7605  37.8460

          k =-0.6375 0.6375 0.2250 (  3828 PWs)   bands (ev):

    -5.4651  -1.4456   1.5284   2.8698   7.2523   9.2687  10.5721  11.5525
    13.8299  14.6375  16.2048  17.6223  18.7815  20.2973  22.0112  23.4005
    24.2321  25.5444  26.1403  26.9144  27.7918  28.3941  30.6552  30.7085
    31.3379  32.2644  32.5158  33.6138  35.6517  36.7271  37.8354  37.9650

          k =-0.6417 0.6417 0.2167 (  3832 PWs)   bands (ev):

    -5.4485  -1.4373   1.4673   2.8462   7.2419   9.3226  10.6409  11.5111
    13.7882  14.6088  16.3013  17.6808  18.8348  20.3475  21.9474  23.3294
    24.2236  25.5321  26.0616  26.8924  27.8128  28.4601  30.5511  30.6048
    31.2788  32.3265  32.5372  33.7223  35.4739  36.7716  37.9056  38.0794

          k =-0.6458 0.6458 0.2083 (  3832 PWs)   bands (ev):

    -5.4318  -1.4293   1.4081   2.8228   7.2288   9.3771  10.7106  11.4716
    13.7459  14.5812  16.4017  17.7392  18.8870  20.3917  21.8856  23.2564
    24.2143  25.5204  25.9878  26.8767  27.8319  28.5231  30.3977  30.5358
    31.2384  32.3919  32.5594  33.8299  35.2989  36.8124  37.9695  38.1875

          k =-0.6500 0.6500 0.2000 (  3834 PWs)   bands (ev):

    -5.4149  -1.4219   1.3507   2.7994   7.2135   9.4311  10.7812  11.4347
    13.7032  14.5546  16.5053  17.7975  18.9378  20.4294  21.8261  23.1816
    24.2040  25.5098  25.9190  26.8669  27.8486  28.5814  30.2500  30.4523
    31.2137  32.4600  32.5821  33.9336  35.1302  36.8498  38.0257  38.2879

          k =-0.6542 0.6542 0.1917 (  3838 PWs)   bands (ev):

    -5.3979  -1.4150   1.2955   2.7761   7.1965   9.4835  10.8524  11.4012
    13.6603  14.5292  16.6118  17.8555  18.9872  20.4602  21.7691  23.1052
    24.1925  25.5011  25.8553  26.8628  27.8622  28.6327  30.1105  30.3597
    31.2002  32.5304  32.6053  34.0278  34.9743  36.8843  38.0735  38.3791

          k =-0.6583 0.6583 0.1833 (  3836 PWs)   bands (ev):

    -5.3808  -1.4088   1.2424   2.7531   7.1779   9.5333  10.9243  11.3721
    13.6174  14.5049  16.7206  17.9133  19.0349  20.4839  21.7150  23.0272
    24.1801  25.4951  25.7966  26.8640  27.8719  28.6737  29.9827  30.2629
    31.1937  32.6027  32.6290  34.0997  34.8443  36.9163  38.1125  38.4603

          k =-0.6625 0.6625 0.1750 (  3838 PWs)   bands (ev):

    -5.3637  -1.4033   1.1917   2.7302   7.1582   9.5792  10.9967  11.3485
    13.5747  14.4820  16.8313  17.9709  19.0808  20.5000  21.6639  22.9480
    24.1666  25.4923  25.7431  26.8700  27.8770  28.6995  29.8714  30.1657
    31.1911  32.6530  32.6768  34.1254  34.7650  36.9460  38.1429  38.5313

          k =-0.6667 0.6667 0.1667 (  3834 PWs)   bands (ev):

    -5.3466  -1.3986   1.1435   2.7075   7.1375   9.6199  11.0696  11.3313
    13.5322  14.4604  16.9434  18.0282  19.1245  20.5087  21.6159  22.8678
    24.1523  25.4932  25.6946  26.8803  27.8767  28.7041  29.7828  30.0711
    31.1901  32.6773  32.7522  34.0824  34.7597  36.9736  38.1652  38.5930

          k =-0.6708 0.6708 0.1583 (  3836 PWs)   bands (ev):

    -5.3294  -1.3947   1.0979   2.6851   7.1161   9.6543  11.1427  11.3216
    13.4901  14.4403  17.0561  18.0853  19.1659  20.5099  21.5710  22.7868
    24.1373  25.4982  25.6512  26.8945  27.8702  28.6818  29.7226  29.9813
    31.1890  32.7019  32.8284  33.9818  34.8181  36.9992  38.1803  38.6462

          k =-0.6750 0.6750 0.1500 (  3839 PWs)   bands (ev):

    -5.3124  -1.3916   1.0550   2.6630   7.0942   9.6813  11.2159  11.3205
    13.4485  14.4217  17.1690  18.1426  19.2047  20.5040  21.5290  22.7055
    24.1220  25.5074  25.6127  26.9121  27.8567  28.6296  29.6937  29.8982
    31.1866  32.7267  32.9047  33.8529  34.9125  37.0227  38.1893  38.6924

          k =-0.6792 0.6792 0.1417 (  3835 PWs)   bands (ev):

    -5.2955  -1.3895   1.0149   2.6412   7.0719   9.7001  11.2892  11.3284
    13.4076  14.4049  17.2811  18.2001  19.2407  20.4914  21.4895  22.6242
    24.1066  25.5211  25.5790  26.9325  27.8356  28.5497  29.6941  29.8229
    31.1819  32.7517  32.9793  33.7157  35.0251  37.0443  38.1934  38.7324

          k =-0.6833 0.6833 0.1333 (  3829 PWs)   bands (ev):

    -5.2788  -1.3884   0.9777   2.6198   7.0495   9.7101  11.3459  11.3623
    13.3675  14.3898  17.3915  18.2584  19.2734  20.4729  21.4523  22.5432
    24.0915  25.5390  25.5501  26.9553  27.8065  28.4477  29.7182  29.7564
    31.1741  32.7769  33.0478  33.5837  35.1475  37.0637  38.1937  38.7666

          k =-0.6875 0.6875 0.1250 (  3827 PWs)   bands (ev):

    -5.2624  -1.3882   0.9436   2.5987   7.0271   9.7112  11.3729  11.4352
    13.3282  14.3766  17.4990  18.3181  19.3027  20.4493  21.4168  22.4630
    24.0769  25.5257  25.5612  26.9798  27.7694  28.3301  29.6991  29.7596
    31.1624  32.8023  33.0974  33.4745  35.2757  37.0809  38.1915  38.7947

          k =-0.6917 0.6917 0.1167 (  3827 PWs)   bands (ev):

    -5.2462  -1.3891   0.9126   2.5780   7.0047   9.7037  11.4092  11.5075
    13.2899  14.3655  17.6023  18.3799  19.3282  20.4214  21.3826  22.3840
    24.0630  25.5057  25.5874  27.0053  27.7248  28.2019  29.6510  29.8134
    31.1462  32.8277  33.0964  33.4227  35.4075  37.0958  38.1879  38.8156

          k =-0.6958 0.6958 0.1083 (  3831 PWs)   bands (ev):

    -5.2304  -1.3909   0.8848   2.5577   6.9825   9.6879  11.4539  11.5793
    13.2528  14.3566  17.6996  18.4450  19.3496  20.3903  21.3494  22.3067
    24.0500  25.4898  25.6173  27.0307  27.6739  28.0670  29.6115  29.8756
    31.1250  32.8533  33.0291  33.4460  35.5416  37.1083  38.1838  38.8269

          k =-0.7000 0.7000 0.1000 (  3831 PWs)   bands (ev):

    -5.2150  -1.3937   0.8602   2.5379   6.9606   9.6648  11.5063  11.6502
    13.2170  14.3501  17.7892  18.5145  19.3664  20.3570  21.3169  22.2315
    24.0382  25.4779  25.6507  27.0545  27.6186  27.9280  29.5795  29.9439
    31.0985  32.8789  32.9315  33.5101  35.6771  37.1183  38.1801  38.8248

          k =-0.7042 0.7042 0.0917 (  3829 PWs)   bands (ev):

    -5.2001  -1.3974   0.8389   2.5185   6.9390   9.6350  11.5652  11.7200
    13.1827  14.3461  17.8692  18.5894  19.3784  20.3223  21.2851  22.1590
    24.0274  25.4697  25.6871  27.0742  27.5622  27.7868  29.5536  30.0164
    31.0669  32.8299  32.9045  33.5899  35.8133  37.1257  38.1777  38.8043

          k =-0.7083 0.7083 0.0833 (  3831 PWs)   bands (ev):

    -5.1858  -1.4020   0.8208   2.4996   6.9178   9.5995  11.6294  11.7885
    13.1503  14.3449  17.9380  18.6703  19.3852  20.2872  21.2541  22.0895
    24.0178  25.4648  25.7262  27.0855  27.5097  27.6448  29.5318  30.0921
    31.0305  32.7338  32.9302  33.6768  35.9494  37.1304  38.1770  38.7609

          k =-0.7125 0.7125 0.0750 (  3829 PWs)   bands (ev):

    -5.1720  -1.4073   0.8059   2.4812   6.8971   9.5592  11.6977  11.8556
    13.1200  14.3465  17.9949  18.7574  19.3865  20.2525  21.2241  22.0235
    24.0093  25.4628  25.7675  27.0823  27.4684  27.5030  29.5121  30.1700
    30.9907  32.6467  32.9559  33.7675  36.0848  37.1326  38.1787  38.6936

          k =-0.7167 0.7167 0.0667 (  3830 PWs)   bands (ev):

    -5.1590  -1.4133   0.7943   2.4633   6.8769   9.5148  11.7690  11.9209
    13.0923  14.3514  18.0395  18.8498  19.3820  20.2191  21.1955  21.9614
    24.0016  25.4633  25.8105  27.0584  27.3625  27.4454  29.4920  30.2496
    30.9493  32.5701  32.9816  33.8608  36.2185  37.1323  38.1831  38.6054

          k =-0.7208 0.7208 0.0583 (  3834 PWs)   bands (ev):

    -5.1467  -1.4199   0.7858   2.4459   6.8573   9.4670  11.8419  11.9842
    13.0678  14.3595  18.0722  18.9461  19.3715  20.1877  21.1690  21.9036
    23.9946  25.4657  25.8547  27.0129  27.2243  27.4424  29.4692  30.3303
    30.9087  32.5042  33.0072  33.9559  36.3494  37.1297  38.1903  38.5017

          k =-0.7250 0.7250 0.0500 (  3831 PWs)   bands (ev):

    -5.1353  -1.4268   0.7805   2.4291   6.8383   9.4164  11.9149  12.0452
    13.0473  14.3712  18.0934  19.0443  19.3547  20.1594  21.1452  21.8503
    23.9880  25.4690  25.8995  26.9510  27.0892  27.4553  29.4413  30.4118
    30.8718  32.4485  33.0329  34.0522  36.4760  37.1250  38.2005  38.3880

          k =-0.7292 0.7292 0.0417 (  3835 PWs)   bands (ev):

    -5.1248  -1.4340   0.7782   2.4128   6.8199   9.3636  11.9867  12.1037
    13.0317  14.3866  18.1041  19.1420  19.3316  20.1350  21.1252  21.8016
    23.9816  25.4722  25.9440  26.8796  26.9587  27.4780  29.4064  30.4938
    30.8416  32.4022  33.0586  34.1493  36.5962  37.1186  38.2137  38.2698

          k =-0.7333 0.7333 0.0333 (  3837 PWs)   bands (ev):

    -5.1152  -1.4413   0.7788   2.3972   6.8023   9.3089  12.0553  12.1595
    13.0223  14.4059  18.1049  19.2362  19.3023  20.1160  21.1099  21.7578
    23.9750  25.4738  25.9873  26.8041  26.8344  27.5062  29.3633  30.5760
    30.8206  32.3643  33.0843  34.2468  36.7067  37.1107  38.1523  38.2299

          k =-0.7375 0.7375 0.0250 (  3843 PWs)   bands (ev):

    -5.1067  -1.4486   0.7822   2.3821   6.7853   9.2529  12.1187  12.2124
    13.0208  14.4293  18.0965  19.2668  19.3236  20.1040  21.1005  21.7188
    23.9679  25.4718  26.0280  26.7183  26.7286  27.5366  29.3119  30.6581
    30.8106  32.3336  33.1100  34.3443  36.8027  37.1018  38.0420  38.2488

          k =-0.7417 0.7417 0.0167 (  3843 PWs)   bands (ev):

    -5.0994  -1.4555   0.7885   2.3677   6.7690   9.1956  12.1749  12.2621
    13.0289  14.4569  18.0798  19.2252  19.4003  20.1012  21.0983  21.6845
    23.9598  25.4637  26.0641  26.6130  26.6566  27.5672  29.2531  30.7400
    30.8126  32.3091  33.1357  34.4413  36.8768  37.0922  37.9470  38.2705

          k =-0.7458 0.7458 0.0083 (  3847 PWs)   bands (ev):

    -5.0932  -1.4621   0.7973   2.3538   6.7535   9.1376  12.2219  12.3085
    13.0482  14.4889  18.0552  19.1780  19.4622  20.1097  21.1047  21.6548
    23.9504  25.4461  26.0930  26.5219  26.5916  27.5963  29.1891  30.8214
    30.8265  32.2899  33.1617  34.5372  36.9192  37.0823  37.8776  38.2946

          k =-0.7500 0.7500 0.0000 (  3851 PWs)   bands (ev):

    -5.0883  -1.4680   0.8086   2.3406   6.7387   9.0790  12.2581  12.3514
    13.0798  14.5251  18.0235  19.1254  19.5064  20.1307  21.1210  21.6293
    23.9394  25.4159  26.1108  26.4482  26.5380  27.6222  29.1230  30.8517
    30.9020  32.2750  33.1877  34.6312  36.9214  37.0724  37.8427  38.3211

     Writing all to output data dir ./work/InP.save/
 
     init_run     :      0.04s CPU      0.06s WALL (       1 calls)
     electrons    :     83.96s CPU     86.47s WALL (       1 calls)

     Called by init_run:
     wfcinit      :      0.00s CPU      0.00s WALL (       1 calls)
     wfcinit:atom :      0.03s CPU      0.03s WALL (     491 calls)
     wfcinit:wfcr :      2.85s CPU      3.10s WALL (     491 calls)
     potinit      :      0.00s CPU      0.00s WALL (       1 calls)
     hinit0       :      0.02s CPU      0.04s WALL (       1 calls)

     Called by electrons:
     c_bands      :     83.95s CPU     86.46s WALL (       1 calls)
     v_of_rho     :      0.00s CPU      0.00s WALL (       1 calls)
     v_h          :      0.00s CPU      0.00s WALL (       1 calls)
     v_xc         :      0.00s CPU      0.00s WALL (       1 calls)

     Called by c_bands:
     init_us_2    :      0.04s CPU      0.04s WALL (     491 calls)
     init_us_2:cp :      0.04s CPU      0.04s WALL (     491 calls)
     cegterg      :     79.83s CPU     82.01s WALL (     986 calls)

     Called by sum_band:

     Called by *egterg:
     cdiaghg      :     20.94s CPU     21.45s WALL (   15502 calls)
     cegterg:over :      2.98s CPU      3.10s WALL (   15011 calls)
     cegterg:upda :      1.11s CPU      1.14s WALL (   15011 calls)
     cegterg:last :      1.83s CPU      1.87s WALL (    9227 calls)
     h_psi        :     54.24s CPU     55.96s WALL (   16488 calls)
     g_psi        :      0.32s CPU      0.33s WALL (   15011 calls)

     Called by h_psi:
     h_psi:calbec :      0.82s CPU      0.84s WALL (   16488 calls)
     vloc_psi     :     52.76s CPU     54.42s WALL (   16488 calls)
     add_vuspsi   :      0.48s CPU      0.50s WALL (   16488 calls)

     General routines
     calbec       :      0.78s CPU      0.81s WALL (   16488 calls)
     fft          :      0.00s CPU      0.02s WALL (       3 calls)
     fftw         :     48.79s CPU     50.33s WALL (  618692 calls)
     davcio       :      0.23s CPU      0.27s WALL (     982 calls)
 
     Parallel routines
 
     PWSCF        :   1m25.65s CPU   1m29.10s WALL

 
   This run was terminated on:  10:27:17   1Feb2023            

=------------------------------------------------------------------------------=
   JOB DONE.
=------------------------------------------------------------------------------=
