
     Program BANDS v.7.1 starts on  1Feb2023 at 10:27:19 

     This program is part of the open-source Quantum ESPRESSO suite
     for quantum simulation of materials; please cite
         "P. Giannozzi et al., J. Phys.:Condens. Matter 21 395502 (2009);
         "P. Giannozzi et al., J. Phys.:Condens. Matter 29 465901 (2017);
         "P. Giannozzi et al., J. Chem. Phys. 152 154105 (2020);
          URL http://www.quantum-espresso.org", 
     in publications or presentations arising from this work. More details at
     http://www.quantum-espresso.org/quote

     Parallel version (MPI), running on    20 processors

     MPI processes distributed on     1 nodes
     R & G space division:  proc/nbgrp/npool/nimage =      20
     116949 MiB available memory on the printing compute node when the environment starts
 

     Reading xml data from directory:

     ./work/InP.save/

     IMPORTANT: XC functional enforced from input :
     Exchange-correlation= PZ
                           (   1   1   0   0   0   0   0)
     Any further DFT definition will be discarded
     Please, verify this is what you really want

 
     Parallelization info
     --------------------
     sticks:   dense  smooth     PW     G-vecs:    dense   smooth      PW
     Min          64      64     18                 1535     1535     233
     Max          65      65     19                 1540     1540     236
     Sum        1285    1285    367                30731    30731    4693
 
     Using Slab Decomposition
 
     Reading collected, re-writing distributed wavefunctions
     high-symmetry point:  0.0000 0.0000 0.0000   x coordinate   0.0000
     high-symmetry point: -1.0000 0.0000 0.0000   x coordinate   1.0000
     high-symmetry point: -1.0000 0.5000 0.0000   x coordinate   1.5000
     high-symmetry point: -0.7500 0.7500 0.0000   x coordinate   1.8536
     high-symmetry point:  0.0000 0.0000 0.0000   x coordinate   2.9142
     high-symmetry point: -0.5000 0.5000 0.5000   x coordinate   3.7802
     high-symmetry point: -1.0000 0.2500 0.2500   x coordinate   4.3926
     high-symmetry point: -1.0000 0.5000 0.0000   x coordinate   4.7462
     high-symmetry point: -0.5000 0.5000 0.5000   x coordinate   5.4533
     high-symmetry point: -0.7500 0.7500 0.0000   x coordinate   6.0656

     Plottable bands (eV) written to file InP.bands.gnu
     Bands written to file InP.bands

 **************************************************************************

                    xk=(   0.00000,   0.00000,   0.00000  )

     point group T_d (-43m) 
     there are  5 classes
     the character table:

       E     8C3   3C2   6S4   6s_d 
A_1    1.00  1.00  1.00  1.00  1.00
A_2    1.00  1.00  1.00 -1.00 -1.00
E      2.00 -1.00  2.00  0.00  0.00
T_1    3.00  0.00 -1.00  1.00 -1.00
T_2    3.00  0.00 -1.00 -1.00  1.00

     the symmetry operations in each class and the name of the first element:

     E        1
                                                                 
     8C3      5    7    8    6   12    9   10   11
                                                                 
     3C2      2    3    4
                                                                 
     6S4     15   16   20   19   23   24
                                                                 
     6s_d    13   14   17   18   21   22
                                                                 

     Band symmetry, T_d (-43m)  point group:

     e(  1 -  1) =     -7.46401  eV     1   --> A_1  G_1  P_1  
     e(  2 -  4) =      4.41073  eV     3   --> T_2  G_15 P_4  
     e(  5 -  5) =      5.65036  eV     1   --> A_1  G_1  P_1  
     e(  6 -  8) =      8.57628  eV     3   --> T_2  G_15 P_4  
     e(  9 -  9) =     13.31687  eV     1   --> A_1  G_1  P_1  
     e( 10 - 11) =     13.95529  eV     2   --> E    G_12 P_3  
     e( 12 - 14) =     16.05566  eV     3   --> T_2  G_15 P_4  
     e( 15 - 15) =     18.73975  eV     1   --> A_1  G_1  P_1  
     e( 16 - 18) =     26.95824  eV     3   --> T_2  G_15 P_4  
     e( 19 - 21) =     28.99852  eV     3   --> T_2  G_15 P_4  
     e( 22 - 23) =     29.38125  eV     2   --> E    G_12 P_3  
     e( 24 - 26) =     31.94700  eV     3   --> T_1  G_25 P_5  
     e( 27 - 27) =     38.39634  eV     1   --> A_1  G_1  P_1  
     e( 28 - 29) =     39.82207  eV     2   --> E    G_12 P_3  
     e( 30 - 32) =     40.36527  eV     3   --> T_2  G_15 P_4  

 **************************************************************************

 **************************************************************************

                    xk=(  -0.01667,   0.00000,   0.00000  )

     point group C_2v (mm2) 
     there are  4 classes
     the character table:

       E     C2    s_v   s_v' 
A_1    1.00  1.00  1.00  1.00
A_2    1.00  1.00 -1.00 -1.00
B_1    1.00 -1.00  1.00 -1.00
B_2    1.00 -1.00 -1.00  1.00

     the symmetry operations in each class and the name of the first element:

     E        1
                                                                 
     C2       2
                                                                 
     s_v      3
                                                                 
     s_v'     4
                                                                 

     Band symmetry, C_2v (mm2)  point group:

     e(  1 -  1) =     -7.46300  eV     1   --> A_1  D_1  S_1  
     e(  2 -  2) =      4.39576  eV     1   --> A_1  D_1  S_1  
     e(  3 -  4) =      4.40761  eV     2   --> B_1  D_3  S_3  
     e(  3 -  4) =      4.40761  eV     2   --> B_2  D_4  S_4  
     e(  5 -  5) =      5.66523  eV     1   --> A_1  D_1  S_1  
     e(  6 -  6) =      8.57235  eV     1   --> A_1  D_1  S_1  
     e(  7 -  8) =      8.58049  eV     2   --> B_1  D_3  S_3  
     e(  7 -  8) =      8.58049  eV     2   --> B_2  D_4  S_4  
     e(  9 -  9) =     13.32323  eV     1   --> A_1  D_1  S_1  
     e( 10 - 10) =     13.94097  eV     1   --> A_1  D_1  S_1  
     e( 11 - 11) =     13.95618  eV     1   --> A_2  D_2  S_2  
     e( 12 - 13) =     16.05802  eV     2   --> B_1  D_3  S_3  
     e( 12 - 13) =     16.05802  eV     2   --> B_2  D_4  S_4  
     e( 14 - 14) =     16.06426  eV     1   --> A_1  D_1  S_1  
     e( 15 - 15) =     18.75108  eV     1   --> A_1  D_1  S_1  
     e( 16 - 17) =     26.93659  eV     2   --> B_1  D_3  S_3  
     e( 16 - 17) =     26.93659  eV     2   --> B_2  D_4  S_4  
     e( 18 - 18) =     26.95800  eV     1   --> A_1  D_1  S_1  
     e( 19 - 19) =     28.94287  eV     1   --> A_1  D_1  S_1  
     e( 20 - 21) =     29.01460  eV     2   --> B_1  D_3  S_3  
     e( 20 - 21) =     29.01460  eV     2   --> B_2  D_4  S_4  
     e( 22 - 22) =     29.35899  eV     1   --> A_2  D_2  S_2  
     e( 23 - 23) =     29.43392  eV     1   --> A_1  D_1  S_1  
     e( 24 - 25) =     31.95447  eV     2   --> B_1  D_3  S_3  
     e( 24 - 25) =     31.95447  eV     2   --> B_2  D_4  S_4  
     e( 26 - 26) =     31.96924  eV     1   --> A_2  D_2  S_2  
     e( 27 - 27) =     38.39704  eV     1   --> A_1  D_1  S_1  
     e( 28 - 28) =     39.79681  eV     1   --> A_1  D_1  S_1  
     e( 29 - 29) =     39.82256  eV     1   --> A_2  D_2  S_2  
     e( 30 - 31) =     40.34831  eV     2   --> B_1  D_3  S_3  
     e( 30 - 31) =     40.34831  eV     2   --> B_2  D_4  S_4  
     e( 32 - 32) =     40.36297  eV     1   --> A_1  D_1  S_1  

 **************************************************************************

 **************************************************************************

                    xk=(  -0.03333,   0.00000,   0.00000  )

     Band symmetry, C_2v (mm2)  point group:

     e(  1 -  1) =     -7.45997  eV     1   --> A_1  D_1  S_1  
     e(  2 -  2) =      4.35283  eV     1   --> A_1  D_1  S_1  
     e(  3 -  4) =      4.39831  eV     2   --> B_1  D_3  S_3  
     e(  3 -  4) =      4.39831  eV     2   --> B_2  D_4  S_4  
     e(  5 -  5) =      5.70786  eV     1   --> A_1  D_1  S_1  
     e(  6 -  6) =      8.56064  eV     1   --> A_1  D_1  S_1  
     e(  7 -  8) =      8.59306  eV     2   --> B_1  D_3  S_3  
     e(  7 -  8) =      8.59306  eV     2   --> B_2  D_4  S_4  
     e(  9 -  9) =     13.34220  eV     1   --> A_1  D_1  S_1  
     e( 10 - 10) =     13.89909  eV     1   --> A_1  D_1  S_1  
     e( 11 - 11) =     13.95885  eV     1   --> A_2  D_2  S_2  
     e( 12 - 13) =     16.06509  eV     2   --> B_1  D_3  S_3  
     e( 12 - 13) =     16.06509  eV     2   --> B_2  D_4  S_4  
     e( 14 - 14) =     16.08911  eV     1   --> A_1  D_1  S_1  
     e( 15 - 15) =     18.78495  eV     1   --> A_1  D_1  S_1  
     e( 16 - 17) =     26.87386  eV     2   --> B_1  D_3  S_3  
     e( 16 - 17) =     26.87386  eV     2   --> B_2  D_4  S_4  
     e( 18 - 18) =     26.95721  eV     1   --> A_1  D_1  S_1  
     e( 19 - 19) =     28.82205  eV     1   --> A_1  D_1  S_1  
     e( 20 - 21) =     29.06059  eV     2   --> B_1  D_3  S_3  
     e( 20 - 21) =     29.06059  eV     2   --> B_2  D_4  S_4  
     e( 22 - 22) =     29.29444  eV     1   --> A_2  D_2  S_2  
     e( 23 - 23) =     29.54588  eV     1   --> A_1  D_1  S_1  
     e( 24 - 25) =     31.97690  eV     2   --> B_1  D_3  S_3  
     e( 24 - 25) =     31.97690  eV     2   --> B_2  D_4  S_4  
     e( 26 - 26) =     32.03371  eV     1   --> A_2  D_2  S_2  
     e( 27 - 27) =     38.39883  eV     1   --> A_1  D_1  S_1  
     e( 28 - 28) =     39.72340  eV     1   --> A_1  D_1  S_1  
     e( 29 - 29) =     39.82406  eV     1   --> A_2  D_2  S_2  
     e( 30 - 31) =     40.29838  eV     2   --> B_1  D_3  S_3  
     e( 30 - 31) =     40.29838  eV     2   --> B_2  D_4  S_4  
     e( 32 - 32) =     40.35602  eV     1   --> A_1  D_1  S_1  

 **************************************************************************

 **************************************************************************

                    xk=(  -0.05000,   0.00000,   0.00000  )

     Band symmetry, C_2v (mm2)  point group:

     e(  1 -  1) =     -7.45491  eV     1   --> A_1  D_1  S_1  
     e(  2 -  2) =      4.28681  eV     1   --> A_1  D_1  S_1  
     e(  3 -  4) =      4.38294  eV     2   --> B_1  D_3  S_3  
     e(  3 -  4) =      4.38294  eV     2   --> B_2  D_4  S_4  
     e(  5 -  5) =      5.77335  eV     1   --> A_1  D_1  S_1  
     e(  6 -  6) =      8.54135  eV     1   --> A_1  D_1  S_1  
     e(  7 -  8) =      8.61387  eV     2   --> B_1  D_3  S_3  
     e(  7 -  8) =      8.61387  eV     2   --> B_2  D_4  S_4  
     e(  9 -  9) =     13.37333  eV     1   --> A_1  D_1  S_1  
     e( 10 - 10) =     13.83268  eV     1   --> A_1  D_1  S_1  
     e( 11 - 11) =     13.96330  eV     1   --> A_2  D_2  S_2  
     e( 12 - 13) =     16.07687  eV     2   --> B_1  D_3  S_3  
     e( 12 - 13) =     16.07687  eV     2   --> B_2  D_4  S_4  
     e( 14 - 14) =     16.12776  eV     1   --> A_1  D_1  S_1  
     e( 15 - 15) =     18.84107  eV     1   --> A_1  D_1  S_1  
     e( 16 - 17) =     26.77571  eV     2   --> B_1  D_3  S_3  
     e( 16 - 17) =     26.77571  eV     2   --> B_2  D_4  S_4  
     e( 18 - 18) =     26.95567  eV     1   --> A_1  D_1  S_1  
     e( 19 - 19) =     28.67883  eV     1   --> A_1  D_1  S_1  
     e( 20 - 21) =     29.13070  eV     2   --> B_1  D_3  S_3  
     e( 20 - 21) =     29.13070  eV     2   --> B_2  D_4  S_4  
     e( 22 - 22) =     29.19336  eV     1   --> A_2  D_2  S_2  
     e( 23 - 23) =     29.67455  eV     1   --> A_1  D_1  S_1  
     e( 24 - 25) =     32.01436  eV     2   --> B_1  D_3  S_3  
     e( 24 - 25) =     32.01436  eV     2   --> B_2  D_4  S_4  
     e( 26 - 26) =     32.13455  eV     1   --> A_2  D_2  S_2  
     e( 27 - 27) =     38.40071  eV     1   --> A_1  D_1  S_1  
     e( 28 - 28) =     39.60818  eV     1   --> A_1  D_1  S_1  
     e( 29 - 29) =     39.82671  eV     1   --> A_2  D_2  S_2  
     e( 30 - 31) =     40.21804  eV     2   --> B_1  D_3  S_3  
     e( 30 - 31) =     40.21804  eV     2   --> B_2  D_4  S_4  
     e( 32 - 32) =     40.34444  eV     1   --> A_1  D_1  S_1  

 **************************************************************************

 **************************************************************************

                    xk=(  -0.06667,   0.00000,   0.00000  )

     Band symmetry, C_2v (mm2)  point group:

     e(  1 -  1) =     -7.44784  eV     1   --> A_1  D_1  S_1  
     e(  2 -  2) =      4.20326  eV     1   --> A_1  D_1  S_1  
     e(  3 -  4) =      4.36171  eV     2   --> B_1  D_3  S_3  
     e(  3 -  4) =      4.36171  eV     2   --> B_2  D_4  S_4  
     e(  5 -  5) =      5.85607  eV     1   --> A_1  D_1  S_1  
     e(  6 -  6) =      8.51482  eV     1   --> A_1  D_1  S_1  
     e(  7 -  8) =      8.64272  eV     2   --> B_1  D_3  S_3  
     e(  7 -  8) =      8.64272  eV     2   --> B_2  D_4  S_4  
     e(  9 -  9) =     13.41553  eV     1   --> A_1  D_1  S_1  
     e( 10 - 10) =     13.74637  eV     1   --> A_1  D_1  S_1  
     e( 11 - 11) =     13.96952  eV     1   --> A_2  D_2  S_2  
     e( 12 - 13) =     16.09337  eV     2   --> B_1  D_3  S_3  
     e( 12 - 13) =     16.09337  eV     2   --> B_2  D_4  S_4  
     e( 14 - 14) =     16.17692  eV     1   --> A_1  D_1  S_1  
     e( 15 - 15) =     18.91892  eV     1   --> A_1  D_1  S_1  
     e( 16 - 17) =     26.64912  eV     2   --> B_1  D_3  S_3  
     e( 16 - 17) =     26.64912  eV     2   --> B_2  D_4  S_4  
     e( 18 - 18) =     26.95300  eV     1   --> A_1  D_1  S_1  
     e( 19 - 19) =     28.52691  eV     1   --> A_1  D_1  S_1  
     e( 20 - 20) =     29.06296  eV     1   --> A_2  D_2  S_2  
     e( 21 - 22) =     29.21782  eV     2   --> B_1  D_3  S_3  
     e( 21 - 22) =     29.21782  eV     2   --> B_2  D_4  S_4  
     e( 23 - 23) =     29.80663  eV     1   --> A_1  D_1  S_1  
     e( 24 - 25) =     32.06691  eV     2   --> B_1  D_3  S_3  
     e( 24 - 25) =     32.06691  eV     2   --> B_2  D_4  S_4  
     e( 26 - 26) =     32.26443  eV     1   --> A_2  D_2  S_2  
     e( 27 - 27) =     38.40067  eV     1   --> A_1  D_1  S_1  
     e( 28 - 28) =     39.45988  eV     1   --> A_1  D_1  S_1  
     e( 29 - 29) =     39.83069  eV     1   --> A_2  D_2  S_2  
     e( 30 - 31) =     40.11077  eV     2   --> B_1  D_3  S_3  
     e( 30 - 31) =     40.11077  eV     2   --> B_2  D_4  S_4  
     e( 32 - 32) =     40.32867  eV     1   --> A_1  D_1  S_1  

 **************************************************************************

 **************************************************************************

                    xk=(  -0.08333,   0.00000,   0.00000  )

     Band symmetry, C_2v (mm2)  point group:

     e(  1 -  1) =     -7.43875  eV     1   --> A_1  D_1  S_1  
     e(  2 -  2) =      4.10700  eV     1   --> A_1  D_1  S_1  
     e(  3 -  4) =      4.33491  eV     2   --> B_1  D_3  S_3  
     e(  3 -  4) =      4.33491  eV     2   --> B_2  D_4  S_4  
     e(  5 -  5) =      5.95113  eV     1   --> A_1  D_1  S_1  
     e(  6 -  6) =      8.48148  eV     1   --> A_1  D_1  S_1  
     e(  7 -  8) =      8.67932  eV     2   --> B_1  D_3  S_3  
     e(  7 -  8) =      8.67932  eV     2   --> B_2  D_4  S_4  
     e(  9 -  9) =     13.46450  eV     1   --> A_1  D_1  S_1  
     e( 10 - 10) =     13.64811  eV     1   --> A_1  D_1  S_1  
     e( 11 - 11) =     13.97752  eV     1   --> A_2  D_2  S_2  
     e( 12 - 13) =     16.11457  eV     2   --> B_1  D_3  S_3  
     e( 12 - 13) =     16.11457  eV     2   --> B_2  D_4  S_4  
     e( 14 - 14) =     16.23329  eV     1   --> A_1  D_1  S_1  
     e( 15 - 15) =     19.01774  eV     1   --> A_1  D_1  S_1  
     e( 16 - 17) =     26.50063  eV     2   --> B_1  D_3  S_3  
     e( 16 - 17) =     26.50063  eV     2   --> B_2  D_4  S_4  
     e( 18 - 18) =     26.94857  eV     1   --> A_1  D_1  S_1  
     e( 19 - 19) =     28.37135  eV     1   --> A_1  D_1  S_1  
     e( 20 - 20) =     28.91015  eV     1   --> A_2  D_2  S_2  
     e( 21 - 22) =     29.31529  eV     2   --> B_1  D_3  S_3  
     e( 21 - 22) =     29.31529  eV     2   --> B_2  D_4  S_4  
     e( 23 - 23) =     29.93768  eV     1   --> A_1  D_1  S_1  
     e( 24 - 25) =     32.13458  eV     2   --> B_1  D_3  S_3  
     e( 24 - 25) =     32.13458  eV     2   --> B_2  D_4  S_4  
     e( 26 - 26) =     32.41626  eV     1   --> A_2  D_2  S_2  
     e( 27 - 27) =     38.39497  eV     1   --> A_1  D_1  S_1  
     e( 28 - 28) =     39.28872  eV     1   --> A_1  D_1  S_1  
     e( 29 - 29) =     39.83631  eV     1   --> A_2  D_2  S_2  
     e( 30 - 31) =     39.98031  eV     2   --> B_1  D_3  S_3  
     e( 30 - 31) =     39.98031  eV     2   --> B_2  D_4  S_4  
     e( 32 - 32) =     40.30969  eV     1   --> A_1  D_1  S_1  

 **************************************************************************

 **************************************************************************

                    xk=(  -0.10000,   0.00000,   0.00000  )

     Band symmetry, C_2v (mm2)  point group:

     e(  1 -  1) =     -7.42765  eV     1   --> A_1  D_1  S_1  
     e(  2 -  2) =      4.00165  eV     1   --> A_1  D_1  S_1  
     e(  3 -  4) =      4.30285  eV     2   --> B_1  D_3  S_3  
     e(  3 -  4) =      4.30285  eV     2   --> B_2  D_4  S_4  
     e(  5 -  5) =      6.05478  eV     1   --> A_1  D_1  S_1  
     e(  6 -  6) =      8.44184  eV     1   --> A_1  D_1  S_1  
     e(  7 -  8) =      8.72335  eV     2   --> B_1  D_3  S_3  
     e(  7 -  8) =      8.72335  eV     2   --> B_2  D_4  S_4  
     e(  9 -  9) =     13.47667  eV     1   --> A_1  D_1  S_1  
     e( 10 - 10) =     13.58484  eV     1   --> A_1  D_1  S_1  
     e( 11 - 11) =     13.98728  eV     1   --> A_2  D_2  S_2  
     e( 12 - 13) =     16.14047  eV     2   --> B_1  D_3  S_3  
     e( 12 - 13) =     16.14047  eV     2   --> B_2  D_4  S_4  
     e( 14 - 14) =     16.29405  eV     1   --> A_1  D_1  S_1  
     e( 15 - 15) =     19.13655  eV     1   --> A_1  D_1  S_1  
     e( 16 - 17) =     26.33558  eV     2   --> B_1  D_3  S_3  
     e( 16 - 17) =     26.33558  eV     2   --> B_2  D_4  S_4  
     e( 18 - 18) =     26.94137  eV     1   --> A_1  D_1  S_1  
     e( 19 - 19) =     28.21500  eV     1   --> A_1  D_1  S_1  
     e( 20 - 20) =     28.74066  eV     1   --> A_2  D_2  S_2  
     e( 21 - 22) =     29.41768  eV     2   --> B_1  D_3  S_3  
     e( 21 - 22) =     29.41768  eV     2   --> B_2  D_4  S_4  
     e( 23 - 23) =     30.06570  eV     1   --> A_1  D_1  S_1  
     e( 24 - 25) =     32.21723  eV     2   --> B_1  D_3  S_3  
     e( 24 - 25) =     32.21723  eV     2   --> B_2  D_4  S_4  
     e( 26 - 26) =     32.58405  eV     1   --> A_2  D_2  S_2  
     e( 27 - 27) =     38.37630  eV     1   --> A_1  D_1  S_1  
     e( 28 - 28) =     39.10735  eV     1   --> A_1  D_1  S_1  
     e( 29 - 30) =     39.83009  eV     2   --> B_1  D_3  S_3  
     e( 29 - 30) =     39.83009  eV     2   --> B_2  D_4  S_4  
     e( 31 - 31) =     39.84392  eV     1   --> A_2  D_2  S_2  
     e( 32 - 32) =     40.28887  eV     1   --> A_1  D_1  S_1  

 **************************************************************************

 **************************************************************************

                    xk=(  -0.11667,   0.00000,   0.00000  )

     Band symmetry, C_2v (mm2)  point group:

     e(  1 -  1) =     -7.41454  eV     1   --> A_1  D_1  S_1  
     e(  2 -  2) =      3.88980  eV     1   --> A_1  D_1  S_1  
     e(  3 -  4) =      4.26591  eV     2   --> B_1  D_3  S_3  
     e(  3 -  4) =      4.26591  eV     2   --> B_2  D_4  S_4  
     e(  5 -  5) =      6.16430  eV     1   --> A_1  D_1  S_1  
     e(  6 -  6) =      8.39648  eV     1   --> A_1  D_1  S_1  
     e(  7 -  8) =      8.77444  eV     2   --> B_1  D_3  S_3  
     e(  7 -  8) =      8.77444  eV     2   --> B_2  D_4  S_4  
     e(  9 -  9) =     13.37435  eV     1   --> A_1  D_1  S_1  
     e( 10 - 10) =     13.63709  eV     1   --> A_1  D_1  S_1  
     e( 11 - 11) =     13.99882  eV     1   --> A_2  D_2  S_2  
     e( 12 - 13) =     16.17107  eV     2   --> B_1  D_3  S_3  
     e( 12 - 13) =     16.17107  eV     2   --> B_2  D_4  S_4  
     e( 14 - 14) =     16.35708  eV     1   --> A_1  D_1  S_1  
     e( 15 - 15) =     19.27417  eV     1   --> A_1  D_1  S_1  
     e( 16 - 17) =     26.15812  eV     2   --> B_1  D_3  S_3  
     e( 16 - 17) =     26.15812  eV     2   --> B_2  D_4  S_4  
     e( 18 - 18) =     26.92987  eV     1   --> A_1  D_1  S_1  
     e( 19 - 19) =     28.06048  eV     1   --> A_1  D_1  S_1  
     e( 20 - 20) =     28.55898  eV     1   --> A_2  D_2  S_2  
     e( 21 - 22) =     29.52096  eV     2   --> B_1  D_3  S_3  
     e( 21 - 22) =     29.52096  eV     2   --> B_2  D_4  S_4  
     e( 23 - 23) =     30.18970  eV     1   --> A_1  D_1  S_1  
     e( 24 - 25) =     32.31456  eV     2   --> B_1  D_3  S_3  
     e( 24 - 25) =     32.31456  eV     2   --> B_2  D_4  S_4  
     e( 26 - 26) =     32.76305  eV     1   --> A_2  D_2  S_2  
     e( 27 - 27) =     38.33034  eV     1   --> A_1  D_1  S_1  
     e( 28 - 28) =     38.93417  eV     1   --> A_1  D_1  S_1  
     e( 29 - 30) =     39.66319  eV     2   --> B_1  D_3  S_3  
     e( 29 - 30) =     39.66319  eV     2   --> B_2  D_4  S_4  
     e( 31 - 31) =     39.85399  eV     1   --> A_2  D_2  S_2  
     e( 32 - 32) =     40.26797  eV     1   --> A_1  D_1  S_1  

 **************************************************************************

 **************************************************************************

                    xk=(  -0.13333,   0.00000,   0.00000  )

     Band symmetry, C_2v (mm2)  point group:

     e(  1 -  1) =     -7.39944  eV     1   --> A_1  D_1  S_1  
     e(  2 -  2) =      3.77328  eV     1   --> A_1  D_1  S_1  
     e(  3 -  4) =      4.22450  eV     2   --> B_1  D_3  S_3  
     e(  3 -  4) =      4.22450  eV     2   --> B_2  D_4  S_4  
     e(  5 -  5) =      6.27771  eV     1   --> A_1  D_1  S_1  
     e(  6 -  6) =      8.34599  eV     1   --> A_1  D_1  S_1  
     e(  7 -  8) =      8.83218  eV     2   --> B_1  D_3  S_3  
     e(  7 -  8) =      8.83218  eV     2   --> B_2  D_4  S_4  
     e(  9 -  9) =     13.24359  eV     1   --> A_1  D_1  S_1  
     e( 10 - 10) =     13.72108  eV     1   --> A_1  D_1  S_1  
     e( 11 - 11) =     14.01211  eV     1   --> A_2  D_2  S_2  
     e( 12 - 13) =     16.20636  eV     2   --> B_1  D_3  S_3  
     e( 12 - 13) =     16.20636  eV     2   --> B_2  D_4  S_4  
     e( 14 - 14) =     16.42096  eV     1   --> A_1  D_1  S_1  
     e( 15 - 15) =     19.42929  eV     1   --> A_1  D_1  S_1  
     e( 16 - 17) =     25.97133  eV     2   --> B_1  D_3  S_3  
     e( 16 - 17) =     25.97133  eV     2   --> B_2  D_4  S_4  
     e( 18 - 18) =     26.91156  eV     1   --> A_1  D_1  S_1  
     e( 19 - 19) =     27.91088  eV     1   --> A_1  D_1  S_1  
     e( 20 - 20) =     28.36843  eV     1   --> A_2  D_2  S_2  
     e( 21 - 22) =     29.62235  eV     2   --> B_1  D_3  S_3  
     e( 21 - 22) =     29.62235  eV     2   --> B_2  D_4  S_4  
     e( 23 - 23) =     30.30895  eV     1   --> A_1  D_1  S_1  
     e( 24 - 25) =     32.42597  eV     2   --> B_1  D_3  S_3  
     e( 24 - 25) =     32.42597  eV     2   --> B_2  D_4  S_4  
     e( 26 - 26) =     32.94951  eV     1   --> A_2  D_2  S_2  
     e( 27 - 27) =     38.23449  eV     1   --> A_1  D_1  S_1  
     e( 28 - 28) =     38.79442  eV     1   --> A_1  D_1  S_1  
     e( 29 - 30) =     39.48215  eV     2   --> B_1  D_3  S_3  
     e( 29 - 30) =     39.48215  eV     2   --> B_2  D_4  S_4  
     e( 31 - 31) =     39.86699  eV     1   --> A_2  D_2  S_2  
     e( 32 - 32) =     40.24896  eV     1   --> A_1  D_1  S_1  

 **************************************************************************

 **************************************************************************

                    xk=(  -0.15000,   0.00000,   0.00000  )

     Band symmetry, C_2v (mm2)  point group:

     e(  1 -  1) =     -7.38234  eV     1   --> A_1  D_1  S_1  
     e(  2 -  2) =      3.65335  eV     1   --> A_1  D_1  S_1  
     e(  3 -  4) =      4.17901  eV     2   --> B_1  D_3  S_3  
     e(  3 -  4) =      4.17901  eV     2   --> B_2  D_4  S_4  
     e(  5 -  5) =      6.39352  eV     1   --> A_1  D_1  S_1  
     e(  6 -  6) =      8.29099  eV     1   --> A_1  D_1  S_1  
     e(  7 -  8) =      8.89617  eV     2   --> B_1  D_3  S_3  
     e(  7 -  8) =      8.89617  eV     2   --> B_2  D_4  S_4  
     e(  9 -  9) =     13.10541  eV     1   --> A_1  D_1  S_1  
     e( 10 - 10) =     13.81758  eV     1   --> A_1  D_1  S_1  
     e( 11 - 11) =     14.02716  eV     1   --> A_2  D_2  S_2  
     e( 12 - 13) =     16.24633  eV     2   --> B_1  D_3  S_3  
     e( 12 - 13) =     16.24633  eV     2   --> B_2  D_4  S_4  
     e( 14 - 14) =     16.48486  eV     1   --> A_1  D_1  S_1  
     e( 15 - 15) =     19.60047  eV     1   --> A_1  D_1  S_1  
     e( 16 - 17) =     25.77753  eV     2   --> B_1  D_3  S_3  
     e( 16 - 17) =     25.77753  eV     2   --> B_2  D_4  S_4  
     e( 18 - 18) =     26.88274  eV     1   --> A_1  D_1  S_1  
     e( 19 - 19) =     27.77042  eV     1   --> A_1  D_1  S_1  
     e( 20 - 20) =     28.17151  eV     1   --> A_2  D_2  S_2  
     e( 21 - 22) =     29.72005  eV     2   --> B_1  D_3  S_3  
     e( 21 - 22) =     29.72005  eV     2   --> B_2  D_4  S_4  
     e( 23 - 23) =     30.42289  eV     1   --> A_1  D_1  S_1  
     e( 24 - 25) =     32.55058  eV     2   --> B_1  D_3  S_3  
     e( 24 - 25) =     32.55058  eV     2   --> B_2  D_4  S_4  
     e( 26 - 26) =     33.14053  eV     1   --> A_2  D_2  S_2  
     e( 27 - 27) =     38.07547  eV     1   --> A_1  D_1  S_1  
     e( 28 - 28) =     38.70289  eV     1   --> A_1  D_1  S_1  
     e( 29 - 30) =     39.28918  eV     2   --> B_1  D_3  S_3  
     e( 29 - 30) =     39.28918  eV     2   --> B_2  D_4  S_4  
     e( 31 - 31) =     39.88355  eV     1   --> A_2  D_2  S_2  
     e( 32 - 32) =     40.23408  eV     1   --> A_1  D_1  S_1  

 **************************************************************************

 **************************************************************************

                    xk=(  -0.16667,   0.00000,   0.00000  )

     Band symmetry, C_2v (mm2)  point group:

     e(  1 -  1) =     -7.36325  eV     1   --> A_1  D_1  S_1  
     e(  2 -  2) =      3.53089  eV     1   --> A_1  D_1  S_1  
     e(  3 -  4) =      4.12989  eV     2   --> B_1  D_3  S_3  
     e(  3 -  4) =      4.12989  eV     2   --> B_2  D_4  S_4  
     e(  5 -  5) =      6.51059  eV     1   --> A_1  D_1  S_1  
     e(  6 -  6) =      8.23209  eV     1   --> A_1  D_1  S_1  
     e(  7 -  8) =      8.96597  eV     2   --> B_1  D_3  S_3  
     e(  7 -  8) =      8.96597  eV     2   --> B_2  D_4  S_4  
     e(  9 -  9) =     12.96392  eV     1   --> A_1  D_1  S_1  
     e( 10 - 10) =     13.92384  eV     1   --> A_1  D_1  S_1  
     e( 11 - 11) =     14.04395  eV     1   --> A_2  D_2  S_2  
     e( 12 - 13) =     16.29097  eV     2   --> B_1  D_3  S_3  
     e( 12 - 13) =     16.29097  eV     2   --> B_2  D_4  S_4  
     e( 14 - 14) =     16.54843  eV     1   --> A_1  D_1  S_1  
     e( 15 - 15) =     19.78629  eV     1   --> A_1  D_1  S_1  
     e( 16 - 17) =     25.57845  eV     2   --> B_1  D_3  S_3  
     e( 16 - 17) =     25.57845  eV     2   --> B_2  D_4  S_4  
     e( 18 - 18) =     26.83817  eV     1   --> A_1  D_1  S_1  
     e( 19 - 19) =     27.64469  eV     1   --> A_1  D_1  S_1  
     e( 20 - 20) =     27.97008  eV     1   --> A_2  D_2  S_2  
     e( 21 - 22) =     29.81307  eV     2   --> B_1  D_3  S_3  
     e( 21 - 22) =     29.81307  eV     2   --> B_2  D_4  S_4  
     e( 23 - 23) =     30.53105  eV     1   --> A_1  D_1  S_1  
     e( 24 - 25) =     32.68718  eV     2   --> B_1  D_3  S_3  
     e( 24 - 25) =     32.68718  eV     2   --> B_2  D_4  S_4  
     e( 26 - 26) =     33.33377  eV     1   --> A_2  D_2  S_2  
     e( 27 - 27) =     37.86739  eV     1   --> A_1  D_1  S_1  
     e( 28 - 28) =     38.64607  eV     1   --> A_1  D_1  S_1  
     e( 29 - 30) =     39.08623  eV     2   --> B_1  D_3  S_3  
     e( 29 - 30) =     39.08623  eV     2   --> B_2  D_4  S_4  
     e( 31 - 31) =     39.90435  eV     1   --> A_2  D_2  S_2  
     e( 32 - 32) =     40.22562  eV     1   --> A_1  D_1  S_1  

 **************************************************************************

 **************************************************************************

                    xk=(  -0.18333,   0.00000,   0.00000  )

     Band symmetry, C_2v (mm2)  point group:

     e(  1 -  1) =     -7.34219  eV     1   --> A_1  D_1  S_1  
     e(  2 -  2) =      3.40657  eV     1   --> A_1  D_1  S_1  
     e(  3 -  4) =      4.07754  eV     2   --> B_1  D_3  S_3  
     e(  3 -  4) =      4.07754  eV     2   --> B_2  D_4  S_4  
     e(  5 -  5) =      6.62800  eV     1   --> A_1  D_1  S_1  
     e(  6 -  6) =      8.16987  eV     1   --> A_1  D_1  S_1  
     e(  7 -  8) =      9.04117  eV     2   --> B_1  D_3  S_3  
     e(  7 -  8) =      9.04117  eV     2   --> B_2  D_4  S_4  
     e(  9 -  9) =     12.82137  eV     1   --> A_1  D_1  S_1  
     e( 10 - 10) =     14.03873  eV     1   --> A_1  D_1  S_1  
     e( 11 - 11) =     14.06248  eV     1   --> A_2  D_2  S_2  
     e( 12 - 13) =     16.34026  eV     2   --> B_1  D_3  S_3  
     e( 12 - 13) =     16.34026  eV     2   --> B_2  D_4  S_4  
     e( 14 - 14) =     16.61160  eV     1   --> A_1  D_1  S_1  
     e( 15 - 15) =     19.98533  eV     1   --> A_1  D_1  S_1  
     e( 16 - 17) =     25.37540  eV     2   --> B_1  D_3  S_3  
     e( 16 - 17) =     25.37540  eV     2   --> B_2  D_4  S_4  
     e( 18 - 18) =     26.77195  eV     1   --> A_1  D_1  S_1  
     e( 19 - 19) =     27.53995  eV     1   --> A_1  D_1  S_1  
     e( 20 - 20) =     27.76553  eV     1   --> A_2  D_2  S_2  
     e( 21 - 22) =     29.90100  eV     2   --> B_1  D_3  S_3  
     e( 21 - 22) =     29.90100  eV     2   --> B_2  D_4  S_4  
     e( 23 - 23) =     30.63294  eV     1   --> A_1  D_1  S_1  
     e( 24 - 25) =     32.83423  eV     2   --> B_1  D_3  S_3  
     e( 24 - 25) =     32.83423  eV     2   --> B_2  D_4  S_4  
     e( 26 - 26) =     33.52728  eV     1   --> A_2  D_2  S_2  
     e( 27 - 27) =     37.63167  eV     1   --> A_1  D_1  S_1  
     e( 28 - 28) =     38.60261  eV     1   --> A_1  D_1  S_1  
     e( 29 - 30) =     38.87512  eV     2   --> B_1  D_3  S_3  
     e( 29 - 30) =     38.87512  eV     2   --> B_2  D_4  S_4  
     e( 31 - 31) =     39.93013  eV     1   --> A_2  D_2  S_2  
     e( 32 - 32) =     40.22573  eV     1   --> A_1  D_1  S_1  

 **************************************************************************

 **************************************************************************

                    xk=(  -0.20000,   0.00000,   0.00000  )

     Band symmetry, C_2v (mm2)  point group:

     e(  1 -  1) =     -7.31916  eV     1   --> A_1  D_1  S_1  
     e(  2 -  2) =      3.28084  eV     1   --> A_1  D_1  S_1  
     e(  3 -  4) =      4.02237  eV     2   --> B_1  D_3  S_3  
     e(  3 -  4) =      4.02237  eV     2   --> B_2  D_4  S_4  
     e(  5 -  5) =      6.74493  eV     1   --> A_1  D_1  S_1  
     e(  6 -  6) =      8.10489  eV     1   --> A_1  D_1  S_1  
     e(  7 -  8) =      9.12137  eV     2   --> B_1  D_3  S_3  
     e(  7 -  8) =      9.12137  eV     2   --> B_2  D_4  S_4  
     e(  9 -  9) =     12.67943  eV     1   --> A_1  D_1  S_1  
     e( 10 - 10) =     14.08274  eV     1   --> A_2  D_2  S_2  
     e( 11 - 11) =     14.16144  eV     1   --> A_1  D_1  S_1  
     e( 12 - 13) =     16.39420  eV     2   --> B_1  D_3  S_3  
     e( 12 - 13) =     16.39420  eV     2   --> B_2  D_4  S_4  
     e( 14 - 14) =     16.67453  eV     1   --> A_1  D_1  S_1  
     e( 15 - 15) =     20.19627  eV     1   --> A_1  D_1  S_1  
     e( 16 - 17) =     25.16940  eV     2   --> B_1  D_3  S_3  
     e( 16 - 17) =     25.16940  eV     2   --> B_2  D_4  S_4  
     e( 18 - 18) =     26.67997  eV     1   --> A_1  D_1  S_1  
     e( 19 - 19) =     27.46057  eV     1   --> A_1  D_1  S_1  
     e( 20 - 20) =     27.55893  eV     1   --> A_2  D_2  S_2  
     e( 21 - 22) =     29.98386  eV     2   --> B_1  D_3  S_3  
     e( 21 - 22) =     29.98386  eV     2   --> B_2  D_4  S_4  
     e( 23 - 23) =     30.72806  eV     1   --> A_1  D_1  S_1  
     e( 24 - 25) =     32.98991  eV     2   --> B_1  D_3  S_3  
     e( 24 - 25) =     32.98991  eV     2   --> B_2  D_4  S_4  
     e( 26 - 26) =     33.71939  eV     1   --> A_2  D_2  S_2  
     e( 27 - 27) =     37.38182  eV     1   --> A_1  D_1  S_1  
     e( 28 - 28) =     38.55881  eV     1   --> A_1  D_1  S_1  
     e( 29 - 30) =     38.65768  eV     2   --> B_1  D_3  S_3  
     e( 29 - 30) =     38.65768  eV     2   --> B_2  D_4  S_4  
     e( 31 - 31) =     39.96169  eV     1   --> A_2  D_2  S_2  
     e( 32 - 32) =     40.23622  eV     1   --> A_1  D_1  S_1  

 **************************************************************************

 **************************************************************************

                    xk=(  -0.21667,   0.00000,   0.00000  )

     Band symmetry, C_2v (mm2)  point group:

     e(  1 -  1) =     -7.29418  eV     1   --> A_1  D_1  S_1  
     e(  2 -  2) =      3.15406  eV     1   --> A_1  D_1  S_1  
     e(  3 -  4) =      3.96477  eV     2   --> B_1  D_3  S_3  
     e(  3 -  4) =      3.96477  eV     2   --> B_2  D_4  S_4  
     e(  5 -  5) =      6.86061  eV     1   --> A_1  D_1  S_1  
     e(  6 -  6) =      8.03767  eV     1   --> A_1  D_1  S_1  
     e(  7 -  8) =      9.20619  eV     2   --> B_1  D_3  S_3  
     e(  7 -  8) =      9.20619  eV     2   --> B_2  D_4  S_4  
     e(  9 -  9) =     12.53953  eV     1   --> A_1  D_1  S_1  
     e( 10 - 10) =     14.10471  eV     1   --> A_2  D_2  S_2  
     e( 11 - 11) =     14.29131  eV     1   --> A_1  D_1  S_1  
     e( 12 - 13) =     16.45276  eV     2   --> B_1  D_3  S_3  
     e( 12 - 13) =     16.45276  eV     2   --> B_2  D_4  S_4  
     e( 14 - 14) =     16.73749  eV     1   --> A_1  D_1  S_1  
     e( 15 - 15) =     20.41786  eV     1   --> A_1  D_1  S_1  
     e( 16 - 17) =     24.96125  eV     2   --> B_1  D_3  S_3  
     e( 16 - 17) =     24.96125  eV     2   --> B_2  D_4  S_4  
     e( 18 - 18) =     26.56265  eV     1   --> A_1  D_1  S_1  
     e( 19 - 19) =     27.35109  eV     1   --> A_2  D_2  S_2  
     e( 20 - 20) =     27.40640  eV     1   --> A_1  D_1  S_1  
     e( 21 - 22) =     30.06193  eV     2   --> B_1  D_3  S_3  
     e( 21 - 22) =     30.06193  eV     2   --> B_2  D_4  S_4  
     e( 23 - 23) =     30.81589  eV     1   --> A_1  D_1  S_1  
     e( 24 - 25) =     33.15201  eV     2   --> B_1  D_3  S_3  
     e( 24 - 25) =     33.15201  eV     2   --> B_2  D_4  S_4  
     e( 26 - 26) =     33.90862  eV     1   --> A_2  D_2  S_2  
     e( 27 - 27) =     37.12519  eV     1   --> A_1  D_1  S_1  
     e( 28 - 29) =     38.43587  eV     2   --> B_1  D_3  S_3  
     e( 28 - 29) =     38.43587  eV     2   --> B_2  D_4  S_4  
     e( 30 - 30) =     38.50734  eV     1   --> A_1  D_1  S_1  
     e( 31 - 31) =     39.99990  eV     1   --> A_2  D_2  S_2  
     e( 32 - 32) =     40.25824  eV     1   --> A_1  D_1  S_1  

 **************************************************************************

 **************************************************************************

                    xk=(  -0.23333,   0.00000,   0.00000  )

     Band symmetry, C_2v (mm2)  point group:

     e(  1 -  1) =     -7.26726  eV     1   --> A_1  D_1  S_1  
     e(  2 -  2) =      3.02650  eV     1   --> A_1  D_1  S_1  
     e(  3 -  4) =      3.90510  eV     2   --> B_1  D_3  S_3  
     e(  3 -  4) =      3.90510  eV     2   --> B_2  D_4  S_4  
     e(  5 -  5) =      6.97432  eV     1   --> A_1  D_1  S_1  
     e(  6 -  6) =      7.96872  eV     1   --> A_1  D_1  S_1  
     e(  7 -  8) =      9.29524  eV     2   --> B_1  D_3  S_3  
     e(  7 -  8) =      9.29524  eV     2   --> B_2  D_4  S_4  
     e(  9 -  9) =     12.40293  eV     1   --> A_1  D_1  S_1  
     e( 10 - 10) =     14.12840  eV     1   --> A_2  D_2  S_2  
     e( 11 - 11) =     14.42773  eV     1   --> A_1  D_1  S_1  
     e( 12 - 13) =     16.51591  eV     2   --> B_1  D_3  S_3  
     e( 12 - 13) =     16.51591  eV     2   --> B_2  D_4  S_4  
     e( 14 - 14) =     16.80082  eV     1   --> A_1  D_1  S_1  
     e( 15 - 15) =     20.64896  eV     1   --> A_1  D_1  S_1  
     e( 16 - 17) =     24.75158  eV     2   --> B_1  D_3  S_3  
     e( 16 - 17) =     24.75158  eV     2   --> B_2  D_4  S_4  
     e( 18 - 18) =     26.42447  eV     1   --> A_1  D_1  S_1  
     e( 19 - 19) =     27.14266  eV     1   --> A_2  D_2  S_2  
     e( 20 - 20) =     27.37321  eV     1   --> A_1  D_1  S_1  
     e( 21 - 22) =     30.13568  eV     2   --> B_1  D_3  S_3  
     e( 21 - 22) =     30.13568  eV     2   --> B_2  D_4  S_4  
     e( 23 - 23) =     30.89581  eV     1   --> A_1  D_1  S_1  
     e( 24 - 25) =     33.31797  eV     2   --> B_1  D_3  S_3  
     e( 24 - 25) =     33.31797  eV     2   --> B_2  D_4  S_4  
     e( 26 - 26) =     34.09361  eV     1   --> A_2  D_2  S_2  
     e( 27 - 27) =     36.86613  eV     1   --> A_1  D_1  S_1  
     e( 28 - 29) =     38.21194  eV     2   --> B_1  D_3  S_3  
     e( 28 - 29) =     38.21194  eV     2   --> B_2  D_4  S_4  
     e( 30 - 30) =     38.44414  eV     1   --> A_1  D_1  S_1  
     e( 31 - 31) =     40.04567  eV     1   --> A_2  D_2  S_2  
     e( 32 - 32) =     40.29214  eV     1   --> A_1  D_1  S_1  

 **************************************************************************

 **************************************************************************

                    xk=(  -0.25000,   0.00000,   0.00000  )

     Band symmetry, C_2v (mm2)  point group:

     e(  1 -  1) =     -7.23840  eV     1   --> A_1  D_1  S_1  
     e(  2 -  2) =      2.89835  eV     1   --> A_1  D_1  S_1  
     e(  3 -  4) =      3.84372  eV     2   --> B_1  D_3  S_3  
     e(  3 -  4) =      3.84372  eV     2   --> B_2  D_4  S_4  
     e(  5 -  5) =      7.08529  eV     1   --> A_1  D_1  S_1  
     e(  6 -  6) =      7.89849  eV     1   --> A_1  D_1  S_1  
     e(  7 -  8) =      9.38820  eV     2   --> B_1  D_3  S_3  
     e(  7 -  8) =      9.38820  eV     2   --> B_2  D_4  S_4  
     e(  9 -  9) =     12.27081  eV     1   --> A_1  D_1  S_1  
     e( 10 - 10) =     14.15378  eV     1   --> A_2  D_2  S_2  
     e( 11 - 11) =     14.57017  eV     1   --> A_1  D_1  S_1  
     e( 12 - 13) =     16.58364  eV     2   --> B_1  D_3  S_3  
     e( 12 - 13) =     16.58364  eV     2   --> B_2  D_4  S_4  
     e( 14 - 14) =     16.86486  eV     1   --> A_1  D_1  S_1  
     e( 15 - 15) =     20.88855  eV     1   --> A_1  D_1  S_1  
     e( 16 - 17) =     24.54093  eV     2   --> B_1  D_3  S_3  
     e( 16 - 17) =     24.54093  eV     2   --> B_2  D_4  S_4  
     e( 18 - 18) =     26.27110  eV     1   --> A_1  D_1  S_1  
     e( 19 - 19) =     26.93417  eV     1   --> A_2  D_2  S_2  
     e( 20 - 20) =     27.35559  eV     1   --> A_1  D_1  S_1  
     e( 21 - 22) =     30.20564  eV     2   --> B_1  D_3  S_3  
     e( 21 - 22) =     30.20564  eV     2   --> B_2  D_4  S_4  
     e( 23 - 23) =     30.96712  eV     1   --> A_1  D_1  S_1  
     e( 24 - 25) =     33.48474  eV     2   --> B_1  D_3  S_3  
     e( 24 - 25) =     33.48474  eV     2   --> B_2  D_4  S_4  
     e( 26 - 26) =     34.27313  eV     1   --> A_2  D_2  S_2  
     e( 27 - 27) =     36.60767  eV     1   --> A_1  D_1  S_1  
     e( 28 - 29) =     37.98865  eV     2   --> B_1  D_3  S_3  
     e( 28 - 29) =     37.98865  eV     2   --> B_2  D_4  S_4  
     e( 30 - 30) =     38.36697  eV     1   --> A_1  D_1  S_1  
     e( 31 - 31) =     40.09991  eV     1   --> A_2  D_2  S_2  
     e( 32 - 32) =     40.33728  eV     1   --> A_1  D_1  S_1  

 **************************************************************************

 **************************************************************************

                    xk=(  -0.26667,   0.00000,   0.00000  )

     Band symmetry, C_2v (mm2)  point group:

     e(  1 -  1) =     -7.20764  eV     1   --> A_1  D_1  S_1  
     e(  2 -  2) =      2.76979  eV     1   --> A_1  D_1  S_1  
     e(  3 -  4) =      3.78095  eV     2   --> B_1  D_3  S_3  
     e(  3 -  4) =      3.78095  eV     2   --> B_2  D_4  S_4  
     e(  5 -  5) =      7.19270  eV     1   --> A_1  D_1  S_1  
     e(  6 -  6) =      7.82743  eV     1   --> A_1  D_1  S_1  
     e(  7 -  8) =      9.48474  eV     2   --> B_1  D_3  S_3  
     e(  7 -  8) =      9.48474  eV     2   --> B_2  D_4  S_4  
     e(  9 -  9) =     12.14431  eV     1   --> A_1  D_1  S_1  
     e( 10 - 10) =     14.18083  eV     1   --> A_2  D_2  S_2  
     e( 11 - 11) =     14.71808  eV     1   --> A_1  D_1  S_1  
     e( 12 - 13) =     16.65591  eV     2   --> B_1  D_3  S_3  
     e( 12 - 13) =     16.65591  eV     2   --> B_2  D_4  S_4  
     e( 14 - 14) =     16.92999  eV     1   --> A_1  D_1  S_1  
     e( 15 - 15) =     21.13570  eV     1   --> A_1  D_1  S_1  
     e( 16 - 17) =     24.32970  eV     2   --> B_1  D_3  S_3  
     e( 16 - 17) =     24.32970  eV     2   --> B_2  D_4  S_4  
     e( 18 - 18) =     26.10732  eV     1   --> A_1  D_1  S_1  
     e( 19 - 19) =     26.72602  eV     1   --> A_2  D_2  S_2  
     e( 20 - 20) =     27.34901  eV     1   --> A_1  D_1  S_1  
     e( 21 - 22) =     30.27238  eV     2   --> B_1  D_3  S_3  
     e( 21 - 22) =     30.27238  eV     2   --> B_2  D_4  S_4  
     e( 23 - 23) =     31.02902  eV     1   --> A_1  D_1  S_1  
     e( 24 - 25) =     33.64851  eV     2   --> B_1  D_3  S_3  
     e( 24 - 25) =     33.64851  eV     2   --> B_2  D_4  S_4  
     e( 26 - 26) =     34.44600  eV     1   --> A_2  D_2  S_2  
     e( 27 - 27) =     36.35216  eV     1   --> A_1  D_1  S_1  
     e( 28 - 29) =     37.76941  eV     2   --> B_1  D_3  S_3  
     e( 28 - 29) =     37.76941  eV     2   --> B_2  D_4  S_4  
     e( 30 - 30) =     38.27457  eV     1   --> A_1  D_1  S_1  
     e( 31 - 31) =     40.16354  eV     1   --> A_2  D_2  S_2  
     e( 32 - 32) =     40.39174  eV     1   --> A_1  D_1  S_1  

 **************************************************************************

 **************************************************************************

                    xk=(  -0.28333,   0.00000,   0.00000  )

     Band symmetry, C_2v (mm2)  point group:

     e(  1 -  1) =     -7.17499  eV     1   --> A_1  D_1  S_1  
     e(  2 -  2) =      2.64095  eV     1   --> A_1  D_1  S_1  
     e(  3 -  4) =      3.71709  eV     2   --> B_1  D_3  S_3  
     e(  3 -  4) =      3.71709  eV     2   --> B_2  D_4  S_4  
     e(  5 -  5) =      7.29559  eV     1   --> A_1  D_1  S_1  
     e(  6 -  6) =      7.75606  eV     1   --> A_1  D_1  S_1  
     e(  7 -  8) =      9.58456  eV     2   --> B_1  D_3  S_3  
     e(  7 -  8) =      9.58456  eV     2   --> B_2  D_4  S_4  
     e(  9 -  9) =     12.02456  eV     1   --> A_1  D_1  S_1  
     e( 10 - 10) =     14.20955  eV     1   --> A_2  D_2  S_2  
     e( 11 - 11) =     14.87099  eV     1   --> A_1  D_1  S_1  
     e( 12 - 13) =     16.73269  eV     2   --> B_1  D_3  S_3  
     e( 12 - 13) =     16.73269  eV     2   --> B_2  D_4  S_4  
     e( 14 - 14) =     16.99654  eV     1   --> A_1  D_1  S_1  
     e( 15 - 15) =     21.38956  eV     1   --> A_1  D_1  S_1  
     e( 16 - 17) =     24.11827  eV     2   --> B_1  D_3  S_3  
     e( 16 - 17) =     24.11827  eV     2   --> B_2  D_4  S_4  
     e( 18 - 18) =     25.93656  eV     1   --> A_1  D_1  S_1  
     e( 19 - 19) =     26.51857  eV     1   --> A_2  D_2  S_2  
     e( 20 - 20) =     27.35029  eV     1   --> A_1  D_1  S_1  
     e( 21 - 22) =     30.33643  eV     2   --> B_1  D_3  S_3  
     e( 21 - 22) =     30.33643  eV     2   --> B_2  D_4  S_4  
     e( 23 - 23) =     31.08052  eV     1   --> A_1  D_1  S_1  
     e( 24 - 25) =     33.80452  eV     2   --> B_1  D_3  S_3  
     e( 24 - 25) =     33.80452  eV     2   --> B_2  D_4  S_4  
     e( 26 - 26) =     34.61118  eV     1   --> A_2  D_2  S_2  
     e( 27 - 27) =     36.10172  eV     1   --> A_1  D_1  S_1  
     e( 28 - 29) =     37.55872  eV     2   --> B_1  D_3  S_3  
     e( 28 - 29) =     37.55872  eV     2   --> B_2  D_4  S_4  
     e( 30 - 30) =     38.16622  eV     1   --> A_1  D_1  S_1  
     e( 31 - 31) =     40.23749  eV     1   --> A_2  D_2  S_2  
     e( 32 - 32) =     40.45061  eV     1   --> A_1  D_1  S_1  

 **************************************************************************

 **************************************************************************

                    xk=(  -0.30000,   0.00000,   0.00000  )

     Band symmetry, C_2v (mm2)  point group:

     e(  1 -  1) =     -7.14045  eV     1   --> A_1  D_1  S_1  
     e(  2 -  2) =      2.51192  eV     1   --> A_1  D_1  S_1  
     e(  3 -  4) =      3.65241  eV     2   --> B_1  D_3  S_3  
     e(  3 -  4) =      3.65241  eV     2   --> B_2  D_4  S_4  
     e(  5 -  5) =      7.39264  eV     1   --> A_1  D_1  S_1  
     e(  6 -  6) =      7.68515  eV     1   --> A_1  D_1  S_1  
     e(  7 -  8) =      9.68741  eV     2   --> B_1  D_3  S_3  
     e(  7 -  8) =      9.68741  eV     2   --> B_2  D_4  S_4  
     e(  9 -  9) =     11.91269  eV     1   --> A_1  D_1  S_1  
     e( 10 - 10) =     14.23992  eV     1   --> A_2  D_2  S_2  
     e( 11 - 11) =     15.02842  eV     1   --> A_1  D_1  S_1  
     e( 12 - 13) =     16.81393  eV     2   --> B_1  D_3  S_3  
     e( 12 - 13) =     16.81393  eV     2   --> B_2  D_4  S_4  
     e( 14 - 14) =     17.06487  eV     1   --> A_1  D_1  S_1  
     e( 15 - 15) =     21.64935  eV     1   --> A_1  D_1  S_1  
     e( 16 - 17) =     23.90697  eV     2   --> B_1  D_3  S_3  
     e( 16 - 17) =     23.90697  eV     2   --> B_2  D_4  S_4  
     e( 18 - 18) =     25.76118  eV     1   --> A_1  D_1  S_1  
     e( 19 - 19) =     26.31211  eV     1   --> A_2  D_2  S_2  
     e( 20 - 20) =     27.35735  eV     1   --> A_1  D_1  S_1  
     e( 21 - 22) =     30.39830  eV     2   --> B_1  D_3  S_3  
     e( 21 - 22) =     30.39830  eV     2   --> B_2  D_4  S_4  
     e( 23 - 23) =     31.12052  eV     1   --> A_1  D_1  S_1  
     e( 24 - 25) =     33.94660  eV     2   --> B_1  D_3  S_3  
     e( 24 - 25) =     33.94660  eV     2   --> B_2  D_4  S_4  
     e( 26 - 26) =     34.76771  eV     1   --> A_2  D_2  S_2  
     e( 27 - 27) =     35.85835  eV     1   --> A_1  D_1  S_1  
     e( 28 - 29) =     37.36253  eV     2   --> B_1  D_3  S_3  
     e( 28 - 29) =     37.36253  eV     2   --> B_2  D_4  S_4  
     e( 30 - 30) =     38.04148  eV     1   --> A_1  D_1  S_1  
     e( 31 - 31) =     40.32259  eV     1   --> A_2  D_2  S_2  
     e( 32 - 32) =     40.49226  eV     1   --> A_1  D_1  S_1  

 **************************************************************************

 **************************************************************************

                    xk=(  -0.31667,   0.00000,   0.00000  )

     Band symmetry, C_2v (mm2)  point group:

     e(  1 -  1) =     -7.10407  eV     1   --> A_1  D_1  S_1  
     e(  2 -  2) =      2.38280  eV     1   --> A_1  D_1  S_1  
     e(  3 -  4) =      3.58717  eV     2   --> B_1  D_3  S_3  
     e(  3 -  4) =      3.58717  eV     2   --> B_2  D_4  S_4  
     e(  5 -  5) =      7.48042  eV     1   --> A_1  D_1  S_1  
     e(  6 -  6) =      7.61748  eV     1   --> A_1  D_1  S_1  
     e(  7 -  8) =      9.79302  eV     2   --> B_1  D_3  S_3  
     e(  7 -  8) =      9.79302  eV     2   --> B_2  D_4  S_4  
     e(  9 -  9) =     11.80987  eV     1   --> A_1  D_1  S_1  
     e( 10 - 10) =     14.27191  eV     1   --> A_2  D_2  S_2  
     e( 11 - 11) =     15.18989  eV     1   --> A_1  D_1  S_1  
     e( 12 - 13) =     16.89957  eV     2   --> B_1  D_3  S_3  
     e( 12 - 13) =     16.89957  eV     2   --> B_2  D_4  S_4  
     e( 14 - 14) =     17.13529  eV     1   --> A_1  D_1  S_1  
     e( 15 - 15) =     21.91432  eV     1   --> A_1  D_1  S_1  
     e( 16 - 17) =     23.69606  eV     2   --> B_1  D_3  S_3  
     e( 16 - 17) =     23.69606  eV     2   --> B_2  D_4  S_4  
     e( 18 - 18) =     25.58283  eV     1   --> A_1  D_1  S_1  
     e( 19 - 19) =     26.10688  eV     1   --> A_2  D_2  S_2  
     e( 20 - 20) =     27.36882  eV     1   --> A_1  D_1  S_1  
     e( 21 - 22) =     30.45844  eV     2   --> B_1  D_3  S_3  
     e( 21 - 22) =     30.45844  eV     2   --> B_2  D_4  S_4  
     e( 23 - 23) =     31.14772  eV     1   --> A_1  D_1  S_1  
     e( 24 - 25) =     34.06673  eV     2   --> B_1  D_3  S_3  
     e( 24 - 25) =     34.06673  eV     2   --> B_2  D_4  S_4  
     e( 26 - 26) =     34.91478  eV     1   --> A_2  D_2  S_2  
     e( 27 - 27) =     35.62408  eV     1   --> A_1  D_1  S_1  
     e( 28 - 29) =     37.18860  eV     2   --> B_1  D_3  S_3  
     e( 28 - 29) =     37.18860  eV     2   --> B_2  D_4  S_4  
     e( 30 - 30) =     37.90002  eV     1   --> A_1  D_1  S_1  
     e( 31 - 31) =     40.40098  eV     1   --> A_1  D_1  S_1  
     e( 32 - 32) =     40.41956  eV     1   --> A_2  D_2  S_2  

 **************************************************************************

 **************************************************************************

                    xk=(  -0.33333,   0.00000,   0.00000  )

     Band symmetry, C_2v (mm2)  point group:

     e(  1 -  1) =     -7.06585  eV     1   --> A_1  D_1  S_1  
     e(  2 -  2) =      2.25366  eV     1   --> A_1  D_1  S_1  
     e(  3 -  4) =      3.52160  eV     2   --> B_1  D_3  S_3  
     e(  3 -  4) =      3.52160  eV     2   --> B_2  D_4  S_4  
     e(  5 -  5) =      7.51817  eV     1   --> A_1  D_1  S_1  
     e(  6 -  6) =      7.59309  eV     1   --> A_1  D_1  S_1  
     e(  7 -  8) =      9.90118  eV     2   --> B_1  D_3  S_3  
     e(  7 -  8) =      9.90118  eV     2   --> B_2  D_4  S_4  
     e(  9 -  9) =     11.71726  eV     1   --> A_1  D_1  S_1  
     e( 10 - 10) =     14.30551  eV     1   --> A_2  D_2  S_2  
     e( 11 - 11) =     15.35495  eV     1   --> A_1  D_1  S_1  
     e( 12 - 13) =     16.98956  eV     2   --> B_1  D_3  S_3  
     e( 12 - 13) =     16.98956  eV     2   --> B_2  D_4  S_4  
     e( 14 - 14) =     17.20815  eV     1   --> A_1  D_1  S_1  
     e( 15 - 15) =     22.18374  eV     1   --> A_1  D_1  S_1  
     e( 16 - 17) =     23.48578  eV     2   --> B_1  D_3  S_3  
     e( 16 - 17) =     23.48578  eV     2   --> B_2  D_4  S_4  
     e( 18 - 18) =     25.40275  eV     1   --> A_1  D_1  S_1  
     e( 19 - 19) =     25.90311  eV     1   --> A_2  D_2  S_2  
     e( 20 - 20) =     27.38389  eV     1   --> A_1  D_1  S_1  
     e( 21 - 22) =     30.51722  eV     2   --> B_1  D_3  S_3  
     e( 21 - 22) =     30.51722  eV     2   --> B_2  D_4  S_4  
     e( 23 - 23) =     31.16070  eV     1   --> A_1  D_1  S_1  
     e( 24 - 25) =     34.15512  eV     2   --> B_1  D_3  S_3  
     e( 24 - 25) =     34.15512  eV     2   --> B_2  D_4  S_4  
     e( 26 - 26) =     35.05174  eV     1   --> A_2  D_2  S_2  
     e( 27 - 27) =     35.40096  eV     1   --> A_1  D_1  S_1  
     e( 28 - 29) =     37.04652  eV     2   --> B_1  D_3  S_3  
     e( 28 - 29) =     37.04652  eV     2   --> B_2  D_4  S_4  
     e( 30 - 30) =     37.74163  eV     1   --> A_1  D_1  S_1  
     e( 31 - 31) =     40.18694  eV     1   --> A_1  D_1  S_1  
     e( 32 - 32) =     40.52904  eV     1   --> A_2  D_2  S_2  

 **************************************************************************

 **************************************************************************

                    xk=(  -0.35000,   0.00000,   0.00000  )

     Band symmetry, C_2v (mm2)  point group:

     e(  1 -  1) =     -7.02582  eV     1   --> A_1  D_1  S_1  
     e(  2 -  2) =      2.12458  eV     1   --> A_1  D_1  S_1  
     e(  3 -  4) =      3.45593  eV     2   --> B_1  D_3  S_3  
     e(  3 -  4) =      3.45593  eV     2   --> B_2  D_4  S_4  
     e(  5 -  5) =      7.46022  eV     1   --> A_1  D_1  S_1  
     e(  6 -  6) =      7.65685  eV     1   --> A_1  D_1  S_1  
     e(  7 -  8) =     10.01168  eV     2   --> B_1  D_3  S_3  
     e(  7 -  8) =     10.01168  eV     2   --> B_2  D_4  S_4  
     e(  9 -  9) =     11.63603  eV     1   --> A_1  D_1  S_1  
     e( 10 - 10) =     14.34068  eV     1   --> A_2  D_2  S_2  
     e( 11 - 11) =     15.52311  eV     1   --> A_1  D_1  S_1  
     e( 12 - 13) =     17.08383  eV     2   --> B_1  D_3  S_3  
     e( 12 - 13) =     17.08383  eV     2   --> B_2  D_4  S_4  
     e( 14 - 14) =     17.28376  eV     1   --> A_1  D_1  S_1  
     e( 15 - 15) =     22.45683  eV     1   --> A_1  D_1  S_1  
     e( 16 - 17) =     23.27635  eV     2   --> B_1  D_3  S_3  
     e( 16 - 17) =     23.27635  eV     2   --> B_2  D_4  S_4  
     e( 18 - 18) =     25.22194  eV     1   --> A_1  D_1  S_1  
     e( 19 - 19) =     25.70095  eV     1   --> A_2  D_2  S_2  
     e( 20 - 20) =     27.40193  eV     1   --> A_1  D_1  S_1  
     e( 21 - 22) =     30.57496  eV     2   --> B_1  D_3  S_3  
     e( 21 - 22) =     30.57496  eV     2   --> B_2  D_4  S_4  
     e( 23 - 23) =     31.15784  eV     1   --> A_1  D_1  S_1  
     e( 24 - 25) =     34.20102  eV     2   --> B_1  D_3  S_3  
     e( 24 - 25) =     34.20102  eV     2   --> B_2  D_4  S_4  
     e( 26 - 26) =     35.17805  eV     1   --> A_2  D_2  S_2  
     e( 27 - 27) =     35.19109  eV     1   --> A_1  D_1  S_1  
     e( 28 - 29) =     36.94681  eV     2   --> B_1  D_3  S_3  
     e( 28 - 29) =     36.94681  eV     2   --> B_2  D_4  S_4  
     e( 30 - 30) =     37.56629  eV     1   --> A_1  D_1  S_1  
     e( 31 - 31) =     39.96359  eV     1   --> A_1  D_1  S_1  
     e( 32 - 32) =     40.65144  eV     1   --> A_2  D_2  S_2  

 **************************************************************************

 **************************************************************************

                    xk=(  -0.36667,   0.00000,   0.00000  )

     Band symmetry, C_2v (mm2)  point group:

     e(  1 -  1) =     -6.98402  eV     1   --> A_1  D_1  S_1  
     e(  2 -  2) =      1.99562  eV     1   --> A_1  D_1  S_1  
     e(  3 -  4) =      3.39034  eV     2   --> B_1  D_3  S_3  
     e(  3 -  4) =      3.39034  eV     2   --> B_2  D_4  S_4  
     e(  5 -  5) =      7.39183  eV     1   --> A_1  D_1  S_1  
     e(  6 -  6) =      7.72273  eV     1   --> A_1  D_1  S_1  
     e(  7 -  8) =     10.12433  eV     2   --> B_1  D_3  S_3  
     e(  7 -  8) =     10.12433  eV     2   --> B_2  D_4  S_4  
     e(  9 -  9) =     11.56730  eV     1   --> A_1  D_1  S_1  
     e( 10 - 10) =     14.37741  eV     1   --> A_2  D_2  S_2  
     e( 11 - 11) =     15.69387  eV     1   --> A_1  D_1  S_1  
     e( 12 - 13) =     17.18228  eV     2   --> B_1  D_3  S_3  
     e( 12 - 13) =     17.18228  eV     2   --> B_2  D_4  S_4  
     e( 14 - 14) =     17.36245  eV     1   --> A_1  D_1  S_1  
     e( 15 - 15) =     22.73266  eV     1   --> A_1  D_1  S_1  
     e( 16 - 17) =     23.06800  eV     2   --> B_1  D_3  S_3  
     e( 16 - 17) =     23.06800  eV     2   --> B_2  D_4  S_4  
     e( 18 - 18) =     25.04136  eV     1   --> A_1  D_1  S_1  
     e( 19 - 19) =     25.50061  eV     1   --> A_2  D_2  S_2  
     e( 20 - 20) =     27.42262  eV     1   --> A_1  D_1  S_1  
     e( 21 - 22) =     30.63194  eV     2   --> B_1  D_3  S_3  
     e( 21 - 22) =     30.63194  eV     2   --> B_2  D_4  S_4  
     e( 23 - 23) =     31.13754  eV     1   --> A_1  D_1  S_1  
     e( 24 - 25) =     34.19543  eV     2   --> B_1  D_3  S_3  
     e( 24 - 25) =     34.19543  eV     2   --> B_2  D_4  S_4  
     e( 26 - 26) =     34.99655  eV     1   --> A_1  D_1  S_1  
     e( 27 - 27) =     35.29344  eV     1   --> A_2  D_2  S_2  
     e( 28 - 29) =     36.89824  eV     2   --> B_1  D_3  S_3  
     e( 28 - 29) =     36.89824  eV     2   --> B_2  D_4  S_4  
     e( 30 - 30) =     37.37430  eV     1   --> A_1  D_1  S_1  
     e( 31 - 31) =     39.75021  eV     1   --> A_1  D_1  S_1  
     e( 32 - 32) =     40.67579  eV     1   -->   ?

 **************************************************************************

 **************************************************************************

                    xk=(  -0.38333,   0.00000,   0.00000  )

     Band symmetry, C_2v (mm2)  point group:

     e(  1 -  1) =     -6.94047  eV     1   --> A_1  D_1  S_1  
     e(  2 -  2) =      1.86683  eV     1   --> A_1  D_1  S_1  
     e(  3 -  4) =      3.32502  eV     2   --> B_1  D_3  S_3  
     e(  3 -  4) =      3.32502  eV     2   --> B_2  D_4  S_4  
     e(  5 -  5) =      7.32294  eV     1   --> A_1  D_1  S_1  
     e(  6 -  6) =      7.78003  eV     1   --> A_1  D_1  S_1  
     e(  7 -  8) =     10.23895  eV     2   --> B_1  D_3  S_3  
     e(  7 -  8) =     10.23895  eV     2   --> B_2  D_4  S_4  
     e(  9 -  9) =     11.51212  eV     1   --> A_1  D_1  S_1  
     e( 10 - 10) =     14.41568  eV     1   --> A_2  D_2  S_2  
     e( 11 - 11) =     15.86671  eV     1   --> A_1  D_1  S_1  
     e( 12 - 13) =     17.28480  eV     2   --> B_1  D_3  S_3  
     e( 12 - 13) =     17.28480  eV     2   --> B_2  D_4  S_4  
     e( 14 - 14) =     17.44460  eV     1   --> A_1  D_1  S_1  
     e( 15 - 16) =     22.86095  eV     2   --> B_1  D_3  S_3  
     e( 15 - 16) =     22.86095  eV     2   --> B_2  D_4  S_4  
     e( 17 - 17) =     23.00997  eV     1   --> A_1  D_1  S_1  
     e( 18 - 18) =     24.86223  eV     1   --> A_1  D_1  S_1  
     e( 19 - 19) =     25.30223  eV     1   --> A_2  D_2  S_2  
     e( 20 - 20) =     27.44576  eV     1   --> A_1  D_1  S_1  
     e( 21 - 22) =     30.68836  eV     2   --> B_1  D_3  S_3  
     e( 21 - 22) =     30.68836  eV     2   --> B_2  D_4  S_4  
     e( 23 - 23) =     31.09833  eV     1   --> A_1  D_1  S_1  
     e( 24 - 25) =     34.13436  eV     2   --> B_1  D_3  S_3  
     e( 24 - 25) =     34.13436  eV     2   --> B_2  D_4  S_4  
     e( 26 - 26) =     34.81925  eV     1   --> A_1  D_1  S_1  
     e( 27 - 27) =     35.39787  eV     1   --> A_2  D_2  S_2  
     e( 28 - 29) =     36.90450  eV     2   --> B_1  D_3  S_3  
     e( 28 - 29) =     36.90450  eV     2   --> B_2  D_4  S_4  
     e( 30 - 30) =     37.16641  eV     1   --> A_1  D_1  S_1  
     e( 31 - 31) =     39.55047  eV     1   --> A_1  D_1  S_1  
     e( 32 - 32) =     40.52107  eV     1   -->   ?

 **************************************************************************

 **************************************************************************

                    xk=(  -0.40000,   0.00000,   0.00000  )

     Band symmetry, C_2v (mm2)  point group:

     e(  1 -  1) =     -6.89520  eV     1   --> A_1  D_1  S_1  
     e(  2 -  2) =      1.73827  eV     1   --> A_1  D_1  S_1  
     e(  3 -  4) =      3.26013  eV     2   --> B_1  D_3  S_3  
     e(  3 -  4) =      3.26013  eV     2   --> B_2  D_4  S_4  
     e(  5 -  5) =      7.25470  eV     1   --> A_1  D_1  S_1  
     e(  6 -  6) =      7.82695  eV     1   --> A_1  D_1  S_1  
     e(  7 -  8) =     10.35541  eV     2   --> B_1  D_3  S_3  
     e(  7 -  8) =     10.35541  eV     2   --> B_2  D_4  S_4  
     e(  9 -  9) =     11.47138  eV     1   --> A_1  D_1  S_1  
     e( 10 - 10) =     14.45542  eV     1   --> A_2  D_2  S_2  
     e( 11 - 11) =     16.04104  eV     1   --> A_1  D_1  S_1  
     e( 12 - 13) =     17.39127  eV     2   --> B_1  D_3  S_3  
     e( 12 - 13) =     17.39127  eV     2   --> B_2  D_4  S_4  
     e( 14 - 14) =     17.53059  eV     1   --> A_1  D_1  S_1  
     e( 15 - 16) =     22.65540  eV     2   --> B_1  D_3  S_3  
     e( 15 - 16) =     22.65540  eV     2   --> B_2  D_4  S_4  
     e( 17 - 17) =     23.28657  eV     1   --> A_1  D_1  S_1  
     e( 18 - 18) =     24.68657  eV     1   --> A_1  D_1  S_1  
     e( 19 - 19) =     25.10592  eV     1   --> A_2  D_2  S_2  
     e( 20 - 20) =     27.47126  eV     1   --> A_1  D_1  S_1  
     e( 21 - 22) =     30.74437  eV     2   --> B_1  D_3  S_3  
     e( 21 - 22) =     30.74437  eV     2   --> B_2  D_4  S_4  
     e( 23 - 23) =     31.03900  eV     1   --> A_1  D_1  S_1  
     e( 24 - 25) =     34.02057  eV     2   --> B_1  D_3  S_3  
     e( 24 - 25) =     34.02057  eV     2   --> B_2  D_4  S_4  
     e( 26 - 26) =     34.66076  eV     1   --> A_1  D_1  S_1  
     e( 27 - 27) =     35.49134  eV     1   --> A_2  D_2  S_2  
     e( 28 - 28) =     36.94380  eV     1   --> A_1  D_1  S_1  
     e( 29 - 30) =     36.96239  eV     2   --> B_1  D_3  S_3  
     e( 29 - 30) =     36.96239  eV     2   --> B_2  D_4  S_4  
     e( 31 - 31) =     39.36510  eV     1   --> A_1  D_1  S_1  
     e( 32 - 32) =     40.37208  eV     1   -->   ?

 **************************************************************************

 **************************************************************************

                    xk=(  -0.41667,   0.00000,   0.00000  )

     Band symmetry, C_2v (mm2)  point group:

     e(  1 -  1) =     -6.84825  eV     1   --> A_1  D_1  S_1  
     e(  2 -  2) =      1.60999  eV     1   --> A_1  D_1  S_1  
     e(  3 -  4) =      3.19583  eV     2   --> B_1  D_3  S_3  
     e(  3 -  4) =      3.19583  eV     2   --> B_2  D_4  S_4  
     e(  5 -  5) =      7.18749  eV     1   --> A_1  D_1  S_1  
     e(  6 -  6) =      7.86264  eV     1   --> A_1  D_1  S_1  
     e(  7 -  8) =     10.47356  eV     2   --> B_1  D_3  S_3  
     e(  7 -  8) =     10.47356  eV     2   --> B_2  D_4  S_4  
     e(  9 -  9) =     11.44574  eV     1   --> A_1  D_1  S_1  
     e( 10 - 10) =     14.49661  eV     1   --> A_2  D_2  S_2  
     e( 11 - 11) =     16.21623  eV     1   --> A_1  D_1  S_1  
     e( 12 - 13) =     17.50152  eV     2   --> B_1  D_3  S_3  
     e( 12 - 13) =     17.50152  eV     2   --> B_2  D_4  S_4  
     e( 14 - 14) =     17.62085  eV     1   --> A_1  D_1  S_1  
     e( 15 - 16) =     22.45160  eV     2   --> B_1  D_3  S_3  
     e( 15 - 16) =     22.45160  eV     2   --> B_2  D_4  S_4  
     e( 17 - 17) =     23.55728  eV     1   --> A_1  D_1  S_1  
     e( 18 - 18) =     24.51932  eV     1   --> A_1  D_1  S_1  
     e( 19 - 19) =     24.91183  eV     1   --> A_2  D_2  S_2  
     e( 20 - 20) =     27.49914  eV     1   --> A_1  D_1  S_1  
     e( 21 - 22) =     30.80006  eV     2   --> B_1  D_3  S_3  
     e( 21 - 22) =     30.80006  eV     2   --> B_2  D_4  S_4  
     e( 23 - 23) =     30.95885  eV     1   --> A_1  D_1  S_1  
     e( 24 - 25) =     33.86195  eV     2   --> B_1  D_3  S_3  
     e( 24 - 25) =     33.86195  eV     2   --> B_2  D_4  S_4  
     e( 26 - 26) =     34.52212  eV     1   --> A_1  D_1  S_1  
     e( 27 - 27) =     35.57416  eV     1   --> A_2  D_2  S_2  
     e( 28 - 28) =     36.70803  eV     1   --> A_1  D_1  S_1  
     e( 29 - 30) =     37.06342  eV     2   --> B_1  D_3  S_3  
     e( 29 - 30) =     37.06342  eV     2   --> B_2  D_4  S_4  
     e( 31 - 31) =     39.19378  eV     1   --> A_1  D_1  S_1  
     e( 32 - 32) =     40.22926  eV     1   -->   ?

 **************************************************************************

 **************************************************************************

                    xk=(  -0.43333,   0.00000,   0.00000  )

     Band symmetry, C_2v (mm2)  point group:

     e(  1 -  1) =     -6.79966  eV     1   --> A_1  D_1  S_1  
     e(  2 -  2) =      1.48206  eV     1   --> A_1  D_1  S_1  
     e(  3 -  4) =      3.13225  eV     2   --> B_1  D_3  S_3  
     e(  3 -  4) =      3.13225  eV     2   --> B_2  D_4  S_4  
     e(  5 -  5) =      7.12156  eV     1   --> A_1  D_1  S_1  
     e(  6 -  6) =      7.88669  eV     1   --> A_1  D_1  S_1  
     e(  7 -  8) =     10.59327  eV     2   --> B_1  D_3  S_3  
     e(  7 -  8) =     10.59327  eV     2   --> B_2  D_4  S_4  
     e(  9 -  9) =     11.43557  eV     1   --> A_1  D_1  S_1  
     e( 10 - 10) =     14.53922  eV     1   --> A_2  D_2  S_2  
     e( 11 - 11) =     16.39156  eV     1   --> A_1  D_1  S_1  
     e( 12 - 13) =     17.61535  eV     2   --> B_1  D_3  S_3  
     e( 12 - 13) =     17.61535  eV     2   --> B_2  D_4  S_4  
     e( 14 - 14) =     17.71587  eV     1   --> A_1  D_1  S_1  
     e( 15 - 16) =     22.24981  eV     2   --> B_1  D_3  S_3  
     e( 15 - 16) =     22.24981  eV     2   --> B_2  D_4  S_4  
     e( 17 - 17) =     23.80324  eV     1   --> A_1  D_1  S_1  
     e( 18 - 18) =     24.37899  eV     1   --> A_1  D_1  S_1  
     e( 19 - 19) =     24.72008  eV     1   --> A_2  D_2  S_2  
     e( 20 - 20) =     27.52954  eV     1   --> A_1  D_1  S_1  
     e( 21 - 22) =     30.85544  eV     2   --> B_1  D_3  S_3  
     e( 21 - 22) =     30.85544  eV     2   --> B_2  D_4  S_4  
     e( 23 - 23) =     30.85789  eV     1   --> A_1  D_1  S_1  
     e( 24 - 25) =     33.66822  eV     2   --> B_1  D_3  S_3  
     e( 24 - 25) =     33.66822  eV     2   --> B_2  D_4  S_4  
     e( 26 - 26) =     34.40364  eV     1   --> A_1  D_1  S_1  
     e( 27 - 27) =     35.64679  eV     1   --> A_2  D_2  S_2  
     e( 28 - 28) =     36.46098  eV     1   --> A_1  D_1  S_1  
     e( 29 - 30) =     37.19704  eV     2   --> B_1  D_3  S_3  
     e( 29 - 30) =     37.19704  eV     2   --> B_2  D_4  S_4  
     e( 31 - 31) =     39.03565  eV     1   --> A_1  D_1  S_1  
     e( 32 - 32) =     40.09332  eV     1   -->   ?

 **************************************************************************

 **************************************************************************

                    xk=(  -0.45000,   0.00000,   0.00000  )

     Band symmetry, C_2v (mm2)  point group:

     e(  1 -  1) =     -6.74947  eV     1   --> A_1  D_1  S_1  
     e(  2 -  2) =      1.35453  eV     1   --> A_1  D_1  S_1  
     e(  3 -  4) =      3.06953  eV     2   --> B_1  D_3  S_3  
     e(  3 -  4) =      3.06953  eV     2   --> B_2  D_4  S_4  
     e(  5 -  5) =      7.05704  eV     1   --> A_1  D_1  S_1  
     e(  6 -  6) =      7.89905  eV     1   --> A_1  D_1  S_1  
     e(  7 -  8) =     10.71444  eV     2   --> B_1  D_3  S_3  
     e(  7 -  8) =     10.71444  eV     2   --> B_2  D_4  S_4  
     e(  9 -  9) =     11.44091  eV     1   --> A_1  D_1  S_1  
     e( 10 - 10) =     14.58320  eV     1   --> A_2  D_2  S_2  
     e( 11 - 11) =     16.56624  eV     1   --> A_1  D_1  S_1  
     e( 12 - 13) =     17.73250  eV     2   --> B_1  D_3  S_3  
     e( 12 - 13) =     17.73250  eV     2   --> B_2  D_4  S_4  
     e( 14 - 14) =     17.81619  eV     1   --> A_1  D_1  S_1  
     e( 15 - 16) =     22.05034  eV     2   --> B_1  D_3  S_3  
     e( 15 - 16) =     22.05034  eV     2   --> B_2  D_4  S_4  
     e( 17 - 17) =     23.93396  eV     1   --> A_1  D_1  S_1  
     e( 18 - 18) =     24.35559  eV     1   --> A_1  D_1  S_1  
     e( 19 - 19) =     24.53078  eV     1   --> A_2  D_2  S_2  
     e( 20 - 20) =     27.56275  eV     1   --> A_1  D_1  S_1  
     e( 21 - 21) =     30.73685  eV     1   --> A_1  D_1  S_1  
     e( 22 - 23) =     30.91045  eV     2   --> B_1  D_3  S_3  
     e( 22 - 23) =     30.91045  eV     2   --> B_2  D_4  S_4  
     e( 24 - 25) =     33.44837  eV     2   --> B_1  D_3  S_3  
     e( 24 - 25) =     33.44837  eV     2   --> B_2  D_4  S_4  
     e( 26 - 26) =     34.30484  eV     1   --> A_1  D_1  S_1  
     e( 27 - 27) =     35.70982  eV     1   --> A_2  D_2  S_2  
     e( 28 - 28) =     36.20466  eV     1   --> A_1  D_1  S_1  
     e( 29 - 30) =     37.35302  eV     2   --> B_1  D_3  S_3  
     e( 29 - 30) =     37.35302  eV     2   --> B_2  D_4  S_4  
     e( 31 - 31) =     38.88962  eV     1   --> A_1  D_1  S_1  
     e( 32 - 32) =     39.96543  eV     1   -->   ?

 **************************************************************************

 **************************************************************************

                    xk=(  -0.46667,   0.00000,   0.00000  )

     Band symmetry, C_2v (mm2)  point group:

     e(  1 -  1) =     -6.69774  eV     1   --> A_1  D_1  S_1  
     e(  2 -  2) =      1.22747  eV     1   --> A_1  D_1  S_1  
     e(  3 -  4) =      3.00778  eV     2   --> B_1  D_3  S_3  
     e(  3 -  4) =      3.00778  eV     2   --> B_2  D_4  S_4  
     e(  5 -  5) =      6.99407  eV     1   --> A_1  D_1  S_1  
     e(  6 -  6) =      7.90003  eV     1   --> A_1  D_1  S_1  
     e(  7 -  8) =     10.83696  eV     2   --> B_1  D_3  S_3  
     e(  7 -  8) =     10.83696  eV     2   --> B_2  D_4  S_4  
     e(  9 -  9) =     11.46142  eV     1   --> A_1  D_1  S_1  
     e( 10 - 10) =     14.62851  eV     1   --> A_2  D_2  S_2  
     e( 11 - 11) =     16.73938  eV     1   --> A_1  D_1  S_1  
     e( 12 - 13) =     17.85263  eV     2   --> B_1  D_3  S_3  
     e( 12 - 13) =     17.85263  eV     2   --> B_2  D_4  S_4  
     e( 14 - 14) =     17.92239  eV     1   --> A_1  D_1  S_1  
     e( 15 - 16) =     21.85358  eV     2   --> B_1  D_3  S_3  
     e( 15 - 16) =     21.85358  eV     2   --> B_2  D_4  S_4  
     e( 17 - 17) =     23.86006  eV     1   --> A_1  D_1  S_1  
     e( 18 - 18) =     24.34406  eV     1   --> A_2  D_2  S_2  
     e( 19 - 19) =     24.53785  eV     1   --> A_1  D_1  S_1  
     e( 20 - 20) =     27.59915  eV     1   --> A_1  D_1  S_1  
     e( 21 - 21) =     30.59720  eV     1   --> A_1  D_1  S_1  
     e( 22 - 23) =     30.96490  eV     2   --> B_1  D_3  S_3  
     e( 22 - 23) =     30.96490  eV     2   --> B_2  D_4  S_4  
     e( 24 - 25) =     33.20977  eV     2   --> B_1  D_3  S_3  
     e( 24 - 25) =     33.20977  eV     2   --> B_2  D_4  S_4  
     e( 26 - 26) =     34.22438  eV     1   --> A_1  D_1  S_1  
     e( 27 - 27) =     35.76386  eV     1   --> A_2  D_2  S_2  
     e( 28 - 28) =     35.94120  eV     1   --> A_1  D_1  S_1  
     e( 29 - 30) =     37.52217  eV     2   --> B_1  D_3  S_3  
     e( 29 - 30) =     37.52217  eV     2   --> B_2  D_4  S_4  
     e( 31 - 31) =     38.75451  eV     1   --> A_1  D_1  S_1  
     e( 32 - 32) =     39.84740  eV     1   -->   ?

 **************************************************************************

 **************************************************************************

                    xk=(  -0.48333,   0.00000,   0.00000  )

     Band symmetry, C_2v (mm2)  point group:

     e(  1 -  1) =     -6.64450  eV     1   --> A_1  D_1  S_1  
     e(  2 -  2) =      1.10094  eV     1   --> A_1  D_1  S_1  
     e(  3 -  4) =      2.94711  eV     2   --> B_1  D_3  S_3  
     e(  3 -  4) =      2.94711  eV     2   --> B_2  D_4  S_4  
     e(  5 -  5) =      6.93276  eV     1   --> A_1  D_1  S_1  
     e(  6 -  6) =      7.89024  eV     1   --> A_1  D_1  S_1  
     e(  7 -  8) =     10.96074  eV     2   --> B_1  D_3  S_3  
     e(  7 -  8) =     10.96074  eV     2   --> B_2  D_4  S_4  
     e(  9 -  9) =     11.49648  eV     1   --> A_1  D_1  S_1  
     e( 10 - 10) =     14.67509  eV     1   --> A_2  D_2  S_2  
     e( 11 - 11) =     16.91003  eV     1   --> A_1  D_1  S_1  
     e( 12 - 13) =     17.97529  eV     2   --> B_1  D_3  S_3  
     e( 12 - 13) =     17.97529  eV     2   --> B_2  D_4  S_4  
     e( 14 - 14) =     18.03510  eV     1   --> A_1  D_1  S_1  
     e( 15 - 16) =     21.66000  eV     2   --> B_1  D_3  S_3  
     e( 15 - 16) =     21.66000  eV     2   --> B_2  D_4  S_4  
     e( 17 - 17) =     23.71343  eV     1   --> A_1  D_1  S_1  
     e( 18 - 18) =     24.16002  eV     1   --> A_2  D_2  S_2  
     e( 19 - 19) =     24.79299  eV     1   --> A_1  D_1  S_1  
     e( 20 - 20) =     27.63932  eV     1   --> A_1  D_1  S_1  
     e( 21 - 21) =     30.44113  eV     1   --> A_1  D_1  S_1  
     e( 22 - 23) =     31.01837  eV     2   --> B_1  D_3  S_3  
     e( 22 - 23) =     31.01837  eV     2   --> B_2  D_4  S_4  
     e( 24 - 25) =     32.95812  eV     2   --> B_1  D_3  S_3  
     e( 24 - 25) =     32.95812  eV     2   --> B_2  D_4  S_4  
     e( 26 - 26) =     34.16016  eV     1   --> A_1  D_1  S_1  
     e( 27 - 27) =     35.67279  eV     1   --> A_1  D_1  S_1  
     e( 28 - 28) =     35.80963  eV     1   --> A_2  D_2  S_2  
     e( 29 - 30) =     37.69588  eV     2   --> B_1  D_3  S_3  
     e( 29 - 30) =     37.69588  eV     2   --> B_2  D_4  S_4  
     e( 31 - 31) =     38.62922  eV     1   --> A_1  D_1  S_1  
     e( 32 - 32) =     39.74218  eV     1   -->   ?

 **************************************************************************

 **************************************************************************

                    xk=(  -0.50000,   0.00000,   0.00000  )

     Band symmetry, C_2v (mm2)  point group:

     e(  1 -  1) =     -6.58982  eV     1   --> A_1  D_1  S_1  
     e(  2 -  2) =      0.97501  eV     1   --> A_1  D_1  S_1  
     e(  3 -  4) =      2.88762  eV     2   --> B_1  D_3  S_3  
     e(  3 -  4) =      2.88762  eV     2   --> B_2  D_4  S_4  
     e(  5 -  5) =      6.87319  eV     1   --> A_1  D_1  S_1  
     e(  6 -  6) =      7.87059  eV     1   --> A_1  D_1  S_1  
     e(  7 -  8) =     11.08569  eV     2   --> B_1  D_3  S_3  
     e(  7 -  8) =     11.08569  eV     2   --> B_2  D_4  S_4  
     e(  9 -  9) =     11.54516  eV     1   --> A_1  D_1  S_1  
     e( 10 - 10) =     14.72289  eV     1   --> A_2  D_2  S_2  
     e( 11 - 11) =     17.07719  eV     1   --> A_1  D_1  S_1  
     e( 12 - 13) =     18.09988  eV     2   --> B_1  D_3  S_3  
     e( 12 - 13) =     18.09988  eV     2   --> B_2  D_4  S_4  
     e( 14 - 14) =     18.15491  eV     1   --> A_1  D_1  S_1  
     e( 15 - 16) =     21.47024  eV     2   --> B_1  D_3  S_3  
     e( 15 - 16) =     21.47024  eV     2   --> B_2  D_4  S_4  
     e( 17 - 17) =     23.55236  eV     1   --> A_1  D_1  S_1  
     e( 18 - 18) =     23.97876  eV     1   --> A_2  D_2  S_2  
     e( 19 - 19) =     25.06153  eV     1   --> A_1  D_1  S_1  
     e( 20 - 20) =     27.68408  eV     1   --> A_1  D_1  S_1  
     e( 21 - 21) =     30.27119  eV     1   --> A_1  D_1  S_1  
     e( 22 - 23) =     31.07007  eV     2   --> B_1  D_3  S_3  
     e( 22 - 23) =     31.07007  eV     2   --> B_2  D_4  S_4  
     e( 24 - 25) =     32.69814  eV     2   --> B_1  D_3  S_3  
     e( 24 - 25) =     32.69814  eV     2   --> B_2  D_4  S_4  
     e( 26 - 26) =     34.10930  eV     1   --> A_1  D_1  S_1  
     e( 27 - 27) =     35.40192  eV     1   --> A_1  D_1  S_1  
     e( 28 - 28) =     35.84787  eV     1   --> A_2  D_2  S_2  
     e( 29 - 30) =     37.86519  eV     2   --> B_1  D_3  S_3  
     e( 29 - 30) =     37.86519  eV     2   --> B_2  D_4  S_4  
     e( 31 - 31) =     38.51278  eV     1   --> A_1  D_1  S_1  
     e( 32 - 32) =     39.65444  eV     1   -->   ?

 **************************************************************************

 **************************************************************************

                    xk=(  -0.51667,   0.00000,   0.00000  )

     Band symmetry, C_2v (mm2)  point group:

     e(  1 -  1) =     -6.53377  eV     1   --> A_1  D_1  S_1  
     e(  2 -  2) =      0.84977  eV     1   --> A_1  D_1  S_1  
     e(  3 -  4) =      2.82940  eV     2   --> B_1  D_3  S_3  
     e(  3 -  4) =      2.82940  eV     2   --> B_2  D_4  S_4  
     e(  5 -  5) =      6.81545  eV     1   --> A_1  D_1  S_1  
     e(  6 -  6) =      7.84214  eV     1   --> A_1  D_1  S_1  
     e(  7 -  8) =     11.21174  eV     2   --> B_1  D_3  S_3  
     e(  7 -  8) =     11.21174  eV     2   --> B_2  D_4  S_4  
     e(  9 -  9) =     11.60633  eV     1   --> A_1  D_1  S_1  
     e( 10 - 10) =     14.77183  eV     1   --> A_2  D_2  S_2  
     e( 11 - 11) =     17.23991  eV     1   --> A_1  D_1  S_1  
     e( 12 - 13) =     18.22555  eV     2   --> B_1  D_3  S_3  
     e( 12 - 13) =     18.22555  eV     2   --> B_2  D_4  S_4  
     e( 14 - 14) =     18.28230  eV     1   --> A_1  D_1  S_1  
     e( 15 - 16) =     21.28515  eV     2   --> B_1  D_3  S_3  
     e( 15 - 16) =     21.28515  eV     2   --> B_2  D_4  S_4  
     e( 17 - 17) =     23.38880  eV     1   --> A_1  D_1  S_1  
     e( 18 - 18) =     23.80041  eV     1   --> A_2  D_2  S_2  
     e( 19 - 19) =     25.32988  eV     1   --> A_1  D_1  S_1  
     e( 20 - 20) =     27.73452  eV     1   --> A_1  D_1  S_1  
     e( 21 - 21) =     30.09032  eV     1   --> A_1  D_1  S_1  
     e( 22 - 23) =     31.11835  eV     2   --> B_1  D_3  S_3  
     e( 22 - 23) =     31.11835  eV     2   --> B_2  D_4  S_4  
     e( 24 - 25) =     32.43429  eV     2   --> B_1  D_3  S_3  
     e( 24 - 25) =     32.43429  eV     2   --> B_2  D_4  S_4  
     e( 26 - 26) =     34.06785  eV     1   --> A_1  D_1  S_1  
     e( 27 - 27) =     35.13184  eV     1   --> A_1  D_1  S_1  
     e( 28 - 28) =     35.87932  eV     1   --> A_2  D_2  S_2  
     e( 29 - 30) =     38.01958  eV     2   --> B_1  D_3  S_3  
     e( 29 - 30) =     38.01958  eV     2   --> B_2  D_4  S_4  
     e( 31 - 31) =     38.40435  eV     1   --> A_1  D_1  S_1  
     e( 32 - 32) =     39.59140  eV     1   -->   ?

 **************************************************************************

 **************************************************************************

                    xk=(  -0.53333,   0.00000,   0.00000  )

     Band symmetry, C_2v (mm2)  point group:

     e(  1 -  1) =     -6.47640  eV     1   --> A_1  D_1  S_1  
     e(  2 -  2) =      0.72528  eV     1   --> A_1  D_1  S_1  
     e(  3 -  4) =      2.77254  eV     2   --> B_1  D_3  S_3  
     e(  3 -  4) =      2.77254  eV     2   --> B_2  D_4  S_4  
     e(  5 -  5) =      6.75959  eV     1   --> A_1  D_1  S_1  
     e(  6 -  6) =      7.80607  eV     1   --> A_1  D_1  S_1  
     e(  7 -  8) =     11.33882  eV     2   --> B_1  D_3  S_3  
     e(  7 -  8) =     11.33882  eV     2   --> B_2  D_4  S_4  
     e(  9 -  9) =     11.67876  eV     1   --> A_1  D_1  S_1  
     e( 10 - 10) =     14.82185  eV     1   --> A_2  D_2  S_2  
     e( 11 - 11) =     17.39734  eV     1   --> A_1  D_1  S_1  
     e( 12 - 13) =     18.35110  eV     2   --> B_1  D_3  S_3  
     e( 12 - 13) =     18.35110  eV     2   --> B_2  D_4  S_4  
     e( 14 - 14) =     18.41755  eV     1   --> A_1  D_1  S_1  
     e( 15 - 16) =     21.10597  eV     2   --> B_1  D_3  S_3  
     e( 15 - 16) =     21.10597  eV     2   --> B_2  D_4  S_4  
     e( 17 - 17) =     23.22656  eV     1   --> A_1  D_1  S_1  
     e( 18 - 18) =     23.62507  eV     1   --> A_2  D_2  S_2  
     e( 19 - 19) =     25.59200  eV     1   --> A_1  D_1  S_1  
     e( 20 - 20) =     27.79205  eV     1   --> A_1  D_1  S_1  
     e( 21 - 21) =     29.90177  eV     1   --> A_1  D_1  S_1  
     e( 22 - 23) =     31.15953  eV     2   --> B_1  D_3  S_3  
     e( 22 - 23) =     31.15953  eV     2   --> B_2  D_4  S_4  
     e( 24 - 25) =     32.17237  eV     2   --> B_1  D_3  S_3  
     e( 24 - 25) =     32.17237  eV     2   --> B_2  D_4  S_4  
     e( 26 - 26) =     34.02957  eV     1   --> A_1  D_1  S_1  
     e( 27 - 27) =     34.86798  eV     1   --> A_1  D_1  S_1  
     e( 28 - 28) =     35.90469  eV     1   --> A_2  D_2  S_2  
     e( 29 - 30) =     38.14637  eV     2   --> B_1  D_3  S_3  
     e( 29 - 30) =     38.14637  eV     2   --> B_2  D_4  S_4  
     e( 31 - 31) =     38.30326  eV     1   --> A_1  D_1  S_1  
     e( 32 - 32) =     39.56303  eV     1   -->   ?

 **************************************************************************

 **************************************************************************

                    xk=(  -0.55000,   0.00000,   0.00000  )

     Band symmetry, C_2v (mm2)  point group:

     e(  1 -  1) =     -6.41780  eV     1   --> A_1  D_1  S_1  
     e(  2 -  2) =      0.60166  eV     1   --> A_1  D_1  S_1  
     e(  3 -  4) =      2.71711  eV     2   --> B_1  D_3  S_3  
     e(  3 -  4) =      2.71711  eV     2   --> B_2  D_4  S_4  
     e(  5 -  5) =      6.70568  eV     1   --> A_1  D_1  S_1  
     e(  6 -  6) =      7.76359  eV     1   --> A_1  D_1  S_1  
     e(  7 -  8) =     11.46685  eV     2   --> B_1  D_3  S_3  
     e(  7 -  8) =     11.46685  eV     2   --> B_2  D_4  S_4  
     e(  9 -  9) =     11.76118  eV     1   --> A_1  D_1  S_1  
     e( 10 - 10) =     14.87286  eV     1   --> A_2  D_2  S_2  
     e( 11 - 11) =     17.54885  eV     1   --> A_1  D_1  S_1  
     e( 12 - 13) =     18.47474  eV     2   --> B_1  D_3  S_3  
     e( 12 - 13) =     18.47474  eV     2   --> B_2  D_4  S_4  
[...]
     e( 16 - 16) =     21.96142  eV     1   --> A''            
     e( 17 - 17) =     24.00156  eV     1   --> A'             
     e( 18 - 18) =     25.46332  eV     1   --> A''            
     e( 19 - 19) =     25.81050  eV     1   --> A'             
     e( 20 - 20) =     27.05836  eV     1   --> A'             
     e( 21 - 21) =     27.36254  eV     1   --> A''            
     e( 22 - 22) =     27.44537  eV     1   --> A'             
     e( 23 - 23) =     29.49202  eV     1   --> A'             
     e( 24 - 24) =     30.24959  eV     1   --> A''            
     e( 25 - 25) =     30.94930  eV     1   --> A'             
     e( 26 - 26) =     32.57014  eV     1   --> A'             
     e( 27 - 27) =     32.98156  eV     1   --> A''            
     e( 28 - 28) =     33.86084  eV     1   --> A'             
     e( 29 - 29) =     36.21847  eV     1   --> A'             
     e( 30 - 30) =     37.13230  eV     1   --> A''            
     e( 31 - 31) =     38.18305  eV     1   --> A''            
     e( 32 - 32) =     38.60542  eV     1   --> A'             

 **************************************************************************

 **************************************************************************

                    xk=(  -0.72083,   0.72083,   0.05833  )

     Band symmetry, C_s (m)     point group:

     e(  1 -  1) =     -5.14674  eV     1   --> A'             
     e(  2 -  2) =     -1.41986  eV     1   --> A'             
     e(  3 -  3) =      0.78582  eV     1   --> A'             
     e(  4 -  4) =      2.44590  eV     1   --> A''            
     e(  5 -  5) =      6.85731  eV     1   --> A'             
     e(  6 -  6) =      9.46701  eV     1   --> A'             
     e(  7 -  7) =     11.84187  eV     1   --> A'             
     e(  8 -  8) =     11.98417  eV     1   --> A''            
     e(  9 -  9) =     13.06782  eV     1   --> A'             
     e( 10 - 10) =     14.35950  eV     1   --> A''            
     e( 11 - 11) =     18.07216  eV     1   --> A'             
     e( 12 - 12) =     18.94614  eV     1   --> A'             
     e( 13 - 13) =     19.37145  eV     1   --> A''            
     e( 14 - 14) =     20.18775  eV     1   --> A'             
     e( 15 - 15) =     21.16899  eV     1   --> A'             
     e( 16 - 16) =     21.90358  eV     1   --> A''            
     e( 17 - 17) =     23.99456  eV     1   --> A'             
     e( 18 - 18) =     25.46565  eV     1   --> A''            
     e( 19 - 19) =     25.85471  eV     1   --> A'             
     e( 20 - 20) =     27.01287  eV     1   --> A'             
     e( 21 - 21) =     27.22425  eV     1   --> A''            
     e( 22 - 22) =     27.44243  eV     1   --> A'             
     e( 23 - 23) =     29.46920  eV     1   --> A'             
     e( 24 - 24) =     30.33032  eV     1   --> A''            
     e( 25 - 25) =     30.90870  eV     1   --> A'             
     e( 26 - 26) =     32.50420  eV     1   --> A'             
     e( 27 - 27) =     33.00724  eV     1   --> A''            
     e( 28 - 28) =     33.95588  eV     1   --> A'             
     e( 29 - 29) =     36.34937  eV     1   --> A'             
     e( 30 - 30) =     37.12969  eV     1   --> A''            
     e( 31 - 31) =     38.19027  eV     1   --> A''            
     e( 32 - 32) =     38.50168  eV     1   --> A'             

 **************************************************************************

 **************************************************************************

                    xk=(  -0.72500,   0.72500,   0.05000  )

     Band symmetry, C_s (m)     point group:

     e(  1 -  1) =     -5.13529  eV     1   --> A'             
     e(  2 -  2) =     -1.42681  eV     1   --> A'             
     e(  3 -  3) =      0.78047  eV     1   --> A'             
     e(  4 -  4) =      2.42908  eV     1   --> A''            
     e(  5 -  5) =      6.83830  eV     1   --> A'             
     e(  6 -  6) =      9.41644  eV     1   --> A'             
     e(  7 -  7) =     11.91494  eV     1   --> A'             
     e(  8 -  8) =     12.04521  eV     1   --> A''            
     e(  9 -  9) =     13.04727  eV     1   --> A'             
     e( 10 - 10) =     14.37117  eV     1   --> A''            
     e( 11 - 11) =     18.09342  eV     1   --> A'             
     e( 12 - 12) =     19.04433  eV     1   --> A'             
     e( 13 - 13) =     19.35470  eV     1   --> A''            
     e( 14 - 14) =     20.15937  eV     1   --> A'             
     e( 15 - 15) =     21.14525  eV     1   --> A'             
     e( 16 - 16) =     21.85025  eV     1   --> A''            
     e( 17 - 17) =     23.98801  eV     1   --> A'             
     e( 18 - 18) =     25.46898  eV     1   --> A''            
     e( 19 - 19) =     25.89947  eV     1   --> A'             
     e( 20 - 20) =     26.95102  eV     1   --> A'             
     e( 21 - 21) =     27.08923  eV     1   --> A''            
     e( 22 - 22) =     27.45529  eV     1   --> A'             
     e( 23 - 23) =     29.44130  eV     1   --> A'             
     e( 24 - 24) =     30.41183  eV     1   --> A''            
     e( 25 - 25) =     30.87181  eV     1   --> A'             
     e( 26 - 26) =     32.44851  eV     1   --> A'             
     e( 27 - 27) =     33.03291  eV     1   --> A''            
     e( 28 - 28) =     34.05217  eV     1   --> A'             
     e( 29 - 29) =     36.47600  eV     1   --> A'             
     e( 30 - 30) =     37.12503  eV     1   --> A''            
     e( 31 - 31) =     38.20048  eV     1   --> A''            
     e( 32 - 32) =     38.38805  eV     1   --> A'             

 **************************************************************************

 **************************************************************************

                    xk=(  -0.72917,   0.72917,   0.04167  )

     Band symmetry, C_s (m)     point group:

     e(  1 -  1) =     -5.12476  eV     1   --> A'             
     e(  2 -  2) =     -1.43402  eV     1   --> A'             
     e(  3 -  3) =      0.77815  eV     1   --> A'             
     e(  4 -  4) =      2.41284  eV     1   --> A''            
     e(  5 -  5) =      6.81994  eV     1   --> A'             
     e(  6 -  6) =      9.36360  eV     1   --> A'             
     e(  7 -  7) =     11.98666  eV     1   --> A'             
     e(  8 -  8) =     12.10375  eV     1   --> A''            
     e(  9 -  9) =     13.03167  eV     1   --> A'             
     e( 10 - 10) =     14.38658  eV     1   --> A''            
     e( 11 - 11) =     18.10407  eV     1   --> A'             
     e( 12 - 12) =     19.14197  eV     1   --> A'             
     e( 13 - 13) =     19.33165  eV     1   --> A''            
     e( 14 - 14) =     20.13500  eV     1   --> A'             
     e( 15 - 15) =     21.12519  eV     1   --> A'             
     e( 16 - 16) =     21.80163  eV     1   --> A''            
     e( 17 - 17) =     23.98159  eV     1   --> A'             
     e( 18 - 18) =     25.47220  eV     1   --> A''            
     e( 19 - 19) =     25.94399  eV     1   --> A'             
     e( 20 - 20) =     26.87962  eV     1   --> A'             
     e( 21 - 21) =     26.95875  eV     1   --> A''            
     e( 22 - 22) =     27.47805  eV     1   --> A'             
     e( 23 - 23) =     29.40640  eV     1   --> A'             
     e( 24 - 24) =     30.49382  eV     1   --> A''            
     e( 25 - 25) =     30.84157  eV     1   --> A'             
     e( 26 - 26) =     32.40221  eV     1   --> A'             
     e( 27 - 27) =     33.05858  eV     1   --> A''            
     e( 28 - 28) =     34.14927  eV     1   --> A'             
     e( 29 - 29) =     36.59618  eV     1   --> A'             
     e( 30 - 30) =     37.11859  eV     1   --> A''            
     e( 31 - 31) =     38.21369  eV     1   --> A''            
     e( 32 - 32) =     38.26980  eV     1   --> A'             

 **************************************************************************

 **************************************************************************

                    xk=(  -0.73333,   0.73333,   0.03333  )

     Band symmetry, C_s (m)     point group:

     e(  1 -  1) =     -5.11521  eV     1   --> A'             
     e(  2 -  2) =     -1.44133  eV     1   --> A'             
     e(  3 -  3) =      0.77878  eV     1   --> A'             
     e(  4 -  4) =      2.39718  eV     1   --> A''            
     e(  5 -  5) =      6.80225  eV     1   --> A'             
     e(  6 -  6) =      9.30895  eV     1   --> A'             
     e(  7 -  7) =     12.05525  eV     1   --> A'             
     e(  8 -  8) =     12.15955  eV     1   --> A''            
     e(  9 -  9) =     13.02232  eV     1   --> A'             
     e( 10 - 10) =     14.40590  eV     1   --> A''            
     e( 11 - 11) =     18.10487  eV     1   --> A'             
     e( 12 - 12) =     19.23617  eV     1   --> A'             
     e( 13 - 13) =     19.30230  eV     1   --> A''            
     e( 14 - 14) =     20.11597  eV     1   --> A'             
     e( 15 - 15) =     21.10987  eV     1   --> A'             
     e( 16 - 16) =     21.75782  eV     1   --> A''            
     e( 17 - 17) =     23.97500  eV     1   --> A'             
     e( 18 - 18) =     25.47382  eV     1   --> A''            
     e( 19 - 19) =     25.98727  eV     1   --> A'             
     e( 20 - 20) =     26.80412  eV     1   --> A'             
     e( 21 - 21) =     26.83441  eV     1   --> A''            
     e( 22 - 22) =     27.50617  eV     1   --> A'             
     e( 23 - 23) =     29.36332  eV     1   --> A'             
     e( 24 - 24) =     30.57600  eV     1   --> A''            
     e( 25 - 25) =     30.82057  eV     1   --> A'             
     e( 26 - 26) =     32.36428  eV     1   --> A'             
     e( 27 - 27) =     33.08425  eV     1   --> A''            
     e( 28 - 28) =     34.24680  eV     1   --> A'             
     e( 29 - 29) =     36.70673  eV     1   --> A'             
     e( 30 - 30) =     37.11073  eV     1   --> A''            
     e( 31 - 31) =     38.15233  eV     1   --> A'             
     e( 32 - 32) =     38.22985  eV     1   --> A''            

 **************************************************************************

 **************************************************************************

                    xk=(  -0.73750,   0.73750,   0.02500  )

     Band symmetry, C_s (m)     point group:

     e(  1 -  1) =     -5.10672  eV     1   --> A'             
     e(  2 -  2) =     -1.44855  eV     1   --> A'             
     e(  3 -  3) =      0.78225  eV     1   --> A'             
     e(  4 -  4) =      2.38211  eV     1   --> A''            
     e(  5 -  5) =      6.78526  eV     1   --> A'             
     e(  6 -  6) =      9.25285  eV     1   --> A'             
     e(  7 -  7) =     12.11872  eV     1   --> A'             
     e(  8 -  8) =     12.21240  eV     1   --> A''            
     e(  9 -  9) =     13.02079  eV     1   --> A'             
     e( 10 - 10) =     14.42930  eV     1   --> A''            
     e( 11 - 11) =     18.09654  eV     1   --> A'             
     e( 12 - 12) =     19.26676  eV     1   --> A''            
     e( 13 - 13) =     19.32356  eV     1   --> A'             
     e( 14 - 14) =     20.10399  eV     1   --> A'             
     e( 15 - 15) =     21.10048  eV     1   --> A'             
     e( 16 - 16) =     21.71881  eV     1   --> A''            
     e( 17 - 17) =     23.96786  eV     1   --> A'             
     e( 18 - 18) =     25.47184  eV     1   --> A''            
     e( 19 - 19) =     26.02795  eV     1   --> A'             
     e( 20 - 20) =     26.71829  eV     1   --> A''            
     e( 21 - 21) =     26.72859  eV     1   --> A'             
     e( 22 - 22) =     27.53661  eV     1   --> A'             
     e( 23 - 23) =     29.31188  eV     1   --> A'             
     e( 24 - 24) =     30.65815  eV     1   --> A''            
     e( 25 - 25) =     30.81060  eV     1   --> A'             
     e( 26 - 26) =     32.33360  eV     1   --> A'             
     e( 27 - 27) =     33.10997  eV     1   --> A''            
     e( 28 - 28) =     34.34432  eV     1   --> A'             
     e( 29 - 29) =     36.80273  eV     1   --> A'             
     e( 30 - 30) =     37.10180  eV     1   --> A''            
     e( 31 - 31) =     38.04197  eV     1   --> A'             
     e( 32 - 32) =     38.24883  eV     1   --> A''            

 **************************************************************************

 **************************************************************************

                    xk=(  -0.74167,   0.74167,   0.01667  )

     Band symmetry, C_s (m)     point group:

     e(  1 -  1) =     -5.09935  eV     1   --> A'             
     e(  2 -  2) =     -1.45552  eV     1   --> A'             
     e(  3 -  3) =      0.78845  eV     1   --> A'             
     e(  4 -  4) =      2.36766  eV     1   --> A''            
     e(  5 -  5) =      6.76899  eV     1   --> A'             
     e(  6 -  6) =      9.19565  eV     1   --> A'             
     e(  7 -  7) =     12.17492  eV     1   --> A'             
     e(  8 -  8) =     12.26210  eV     1   --> A''            
     e(  9 -  9) =     13.02885  eV     1   --> A'             
     e( 10 - 10) =     14.45692  eV     1   --> A''            
     e( 11 - 11) =     18.07976  eV     1   --> A'             
     e( 12 - 12) =     19.22523  eV     1   --> A''            
     e( 13 - 13) =     19.40025  eV     1   --> A'             
     e( 14 - 14) =     20.10117  eV     1   --> A'             
     e( 15 - 15) =     21.09830  eV     1   --> A'             
     e( 16 - 16) =     21.68452  eV     1   --> A''            
     e( 17 - 17) =     23.95980  eV     1   --> A'             
     e( 18 - 18) =     25.46366  eV     1   --> A''            
     e( 19 - 19) =     26.06413  eV     1   --> A'             
     e( 20 - 20) =     26.61305  eV     1   --> A''            
     e( 21 - 21) =     26.65655  eV     1   --> A'             
     e( 22 - 22) =     27.56722  eV     1   --> A'             
     e( 23 - 23) =     29.25312  eV     1   --> A'             
     e( 24 - 24) =     30.74002  eV     1   --> A''            
     e( 25 - 25) =     30.81258  eV     1   --> A'             
     e( 26 - 26) =     32.30912  eV     1   --> A'             
     e( 27 - 27) =     33.13575  eV     1   --> A''            
     e( 28 - 28) =     34.44133  eV     1   --> A'             
     e( 29 - 29) =     36.87681  eV     1   --> A'             
     e( 30 - 30) =     37.09219  eV     1   --> A''            
     e( 31 - 31) =     37.94698  eV     1   --> A'             
     e( 32 - 32) =     38.27049  eV     1   --> A''            

 **************************************************************************

 **************************************************************************

                    xk=(  -0.74583,   0.74583,   0.00833  )

     Band symmetry, C_s (m)     point group:

     e(  1 -  1) =     -5.09318  eV     1   --> A'             
     e(  2 -  2) =     -1.46206  eV     1   --> A'             
     e(  3 -  3) =      0.79727  eV     1   --> A'             
     e(  4 -  4) =      2.35384  eV     1   --> A''            
     e(  5 -  5) =      6.75345  eV     1   --> A'             
     e(  6 -  6) =      9.13761  eV     1   --> A'             
     e(  7 -  7) =     12.22187  eV     1   --> A'             
     e(  8 -  8) =     12.30848  eV     1   --> A''            
     e(  9 -  9) =     13.04815  eV     1   --> A'             
     e( 10 - 10) =     14.48885  eV     1   --> A''            
     e( 11 - 11) =     18.05519  eV     1   --> A'             
     e( 12 - 12) =     19.17799  eV     1   --> A''            
     e( 13 - 13) =     19.46223  eV     1   --> A'             
     e( 14 - 14) =     20.10969  eV     1   --> A'             
     e( 15 - 15) =     21.10470  eV     1   --> A'             
     e( 16 - 16) =     21.65476  eV     1   --> A''            
     e( 17 - 17) =     23.95044  eV     1   --> A'             
     e( 18 - 18) =     25.44612  eV     1   --> A''            
     e( 19 - 19) =     26.09301  eV     1   --> A'             
     e( 20 - 20) =     26.52189  eV     1   --> A''            
     e( 21 - 21) =     26.59165  eV     1   --> A'             
     e( 22 - 22) =     27.59626  eV     1   --> A'             
     e( 23 - 23) =     29.18914  eV     1   --> A'             
     e( 24 - 24) =     30.82139  eV     1   --> A''            
     e( 25 - 25) =     30.82650  eV     1   --> A'             
     e( 26 - 26) =     32.28986  eV     1   --> A'             
     e( 27 - 27) =     33.16165  eV     1   --> A''            
     e( 28 - 28) =     34.53722  eV     1   --> A'             
     e( 29 - 29) =     36.91925  eV     1   --> A'             
     e( 30 - 30) =     37.08225  eV     1   --> A''            
     e( 31 - 31) =     37.87757  eV     1   --> A'             
     e( 32 - 32) =     38.29463  eV     1   --> A''            

 **************************************************************************

 **************************************************************************

                    xk=(  -0.75000,   0.75000,   0.00000  )

     Band symmetry, C_s (m)     point group:

     e(  1 -  1) =     -5.08827  eV     1   --> A'             
     e(  2 -  2) =     -1.46798  eV     1   --> A'             
     e(  3 -  3) =      0.80860  eV     1   --> A'             
     e(  4 -  4) =      2.34065  eV     1   --> A''            
     e(  5 -  5) =      6.73867  eV     1   --> A'             
     e(  6 -  6) =      9.07898  eV     1   --> A'             
     e(  7 -  7) =     12.25812  eV     1   --> A'             
     e(  8 -  8) =     12.35143  eV     1   --> A''            
     e(  9 -  9) =     13.07981  eV     1   --> A'             
     e( 10 - 10) =     14.52514  eV     1   --> A''            
     e( 11 - 11) =     18.02349  eV     1   --> A'             
     e( 12 - 12) =     19.12541  eV     1   --> A''            
     e( 13 - 13) =     19.50642  eV     1   --> A'             
     e( 14 - 14) =     20.13075  eV     1   --> A'             
     e( 15 - 15) =     21.12104  eV     1   --> A'             
     e( 16 - 16) =     21.62926  eV     1   --> A''            
     e( 17 - 17) =     23.93942  eV     1   --> A'             
     e( 18 - 18) =     25.41588  eV     1   --> A''            
     e( 19 - 19) =     26.11079  eV     1   --> A'             
     e( 20 - 20) =     26.44818  eV     1   --> A''            
     e( 21 - 21) =     26.53802  eV     1   --> A'             
     e( 22 - 22) =     27.62216  eV     1   --> A'             
     e( 23 - 23) =     29.12297  eV     1   --> A'             
     e( 24 - 24) =     30.85167  eV     1   --> A'             
     e( 25 - 25) =     30.90204  eV     1   --> A''            
     e( 26 - 26) =     32.27498  eV     1   --> A'             
     e( 27 - 27) =     33.18773  eV     1   --> A''            
     e( 28 - 28) =     34.63117  eV     1   --> A'             
     e( 29 - 29) =     36.92135  eV     1   --> A'             
     e( 30 - 30) =     37.07236  eV     1   --> A''            
     e( 31 - 31) =     37.84266  eV     1   --> A'             
     e( 32 - 32) =     38.32109  eV     1   --> A''            

 **************************************************************************
 
     BANDS        :     20.75s CPU     25.67s WALL

 
   This run was terminated on:  10:27:45   1Feb2023            

=------------------------------------------------------------------------------=
   JOB DONE.
=------------------------------------------------------------------------------=
