
     Program PWSCF v.7.1 starts on 23Feb2023 at 13:47:57 

     This program is part of the open-source Quantum ESPRESSO suite
     for quantum simulation of materials; please cite
         "P. Giannozzi et al., J. Phys.:Condens. Matter 21 395502 (2009);
         "P. Giannozzi et al., J. Phys.:Condens. Matter 29 465901 (2017);
         "P. Giannozzi et al., J. Chem. Phys. 152 154105 (2020);
          URL http://www.quantum-espresso.org", 
     in publications or presentations arising from this work. More details at
     http://www.quantum-espresso.org/quote

     Parallel version (MPI), running on    16 processors

     MPI processes distributed on     1 nodes
     59799 MiB available memory on the printing compute node when the environment starts
 
     Waiting for input...
     Reading input from standard input

     Current dimensions of program PWSCF are:
     Max number of different atomic species (ntypx) = 10
     Max number of k-points (npk) =  40000
     Max angular momentum in pseudopotentials (lmaxx) =  4
 
     R & G space division:  proc/nbgrp/npool/nimage =      16
     Subspace diagonalization in iterative solution of the eigenvalue problem:
     a serial algorithm will be used

 
     Parallelization info
     --------------------
     sticks:   dense  smooth     PW     G-vecs:    dense   smooth      PW
     Min          92      92     27                 2303     2303     372
     Max          93      93     28                 2304     2304     375
     Sum        1483    1483    433                36853    36853    5961
 
     Using Slab Decomposition
 


     bravais-lattice index     =            2
     lattice parameter (alat)  =      11.5196  a.u.
     unit-cell volume          =     382.1699 (a.u.)^3
     number of atoms/cell      =            2
     number of atomic types    =            2
     number of electrons       =         8.00
     number of Kohn-Sham states=            4
     kinetic-energy cutoff     =      80.0000  Ry
     charge density cutoff     =     320.0000  Ry
     scf convergence threshold =      1.0E-09
     mixing beta               =       0.1500
     number of iterations used =            8  plain     mixing
     energy convergence thresh.=      1.0E-06
     force convergence thresh. =      1.0E-05
     press convergence thresh. =      5.0E-02
     Exchange-correlation= SLA-PZ-NOGX-NOGC
                           (   1   1   0   0   0   0   0)
     nstep                     =          100


     celldm(1)=  11.519638  celldm(2)=   0.000000  celldm(3)=   0.000000
     celldm(4)=   0.000000  celldm(5)=   0.000000  celldm(6)=   0.000000

     crystal axes: (cart. coord. in units of alat)
               a(1) = (  -0.500000   0.000000   0.500000 )  
               a(2) = (   0.000000   0.500000   0.500000 )  
               a(3) = (  -0.500000   0.500000   0.000000 )  

     reciprocal axes: (cart. coord. in units 2 pi/alat)
               b(1) = ( -1.000000 -1.000000  1.000000 )  
               b(2) = (  1.000000  1.000000  1.000000 )  
               b(3) = ( -1.000000  1.000000 -1.000000 )  


     PseudoPot. # 1 for Ga read from file:
     ../pseudo/Ga.pz-hgh.upf
     MD5 check sum: 9a76aebca20297769771d7f9bb2cf22c
     Pseudo is Norm-conserving, Zval =  3.0
     Generated in analytical, separable form
     Using radial grid of 1205 points,  6 beta functions with: 
                l(1) =   0
                l(2) =   0
                l(3) =   0
                l(4) =   1
                l(5) =   1
                l(6) =   2

     PseudoPot. # 2 for Sb read from file:
     ../pseudo/Sb.pz-hgh.upf
     MD5 check sum: e4b141fc27dbe73d740b8d5d3061d4bd
     Pseudo is Norm-conserving, Zval =  5.0
     Generated in analytical, separable form
     Using radial grid of 1243 points,  6 beta functions with: 
                l(1) =   0
                l(2) =   0
                l(3) =   0
                l(4) =   1
                l(5) =   1
                l(6) =   2

     atomic species   valence    mass     pseudopotential
        Ga             3.00    69.72300     Ga( 1.00)
        Sb             5.00   121.76000     Sb( 1.00)

     24 Sym. Ops. (no inversion) found



   Cartesian axes

     site n.     atom                  positions (alat units)
         1           Ga  tau(   1) = (   0.0000000   0.0000000   0.0000000  )
         2           Sb  tau(   2) = (  -0.2500000   0.2500000   0.2500000  )

     number of k points=    60
                       cart. coord. in units 2pi/alat
        k(    1) = (  -0.0625000   0.0625000   0.0625000), wk =   0.0078125
        k(    2) = (  -0.1875000   0.1875000  -0.0625000), wk =   0.0234375
        k(    3) = (  -0.3125000   0.3125000  -0.1875000), wk =   0.0234375
        k(    4) = (  -0.4375000   0.4375000  -0.3125000), wk =   0.0234375
        k(    5) = (   0.4375000  -0.4375000   0.5625000), wk =   0.0234375
        k(    6) = (   0.3125000  -0.3125000   0.4375000), wk =   0.0234375
        k(    7) = (   0.1875000  -0.1875000   0.3125000), wk =   0.0234375
        k(    8) = (   0.0625000  -0.0625000   0.1875000), wk =   0.0234375
        k(    9) = (  -0.0625000   0.3125000   0.0625000), wk =   0.0234375
        k(   10) = (  -0.1875000   0.4375000  -0.0625000), wk =   0.0468750
        k(   11) = (  -0.3125000   0.5625000  -0.1875000), wk =   0.0468750
        k(   12) = (   0.5625000  -0.3125000   0.6875000), wk =   0.0468750
        k(   13) = (   0.4375000  -0.1875000   0.5625000), wk =   0.0468750
        k(   14) = (   0.3125000  -0.0625000   0.4375000), wk =   0.0468750
        k(   15) = (   0.1875000   0.0625000   0.3125000), wk =   0.0468750
        k(   16) = (  -0.0625000   0.5625000   0.0625000), wk =   0.0234375
        k(   17) = (  -0.1875000   0.6875000  -0.0625000), wk =   0.0468750
        k(   18) = (   0.6875000  -0.1875000   0.8125000), wk =   0.0468750
        k(   19) = (   0.5625000  -0.0625000   0.6875000), wk =   0.0468750
        k(   20) = (   0.4375000   0.0625000   0.5625000), wk =   0.0468750
        k(   21) = (   0.3125000   0.1875000   0.4375000), wk =   0.0468750
        k(   22) = (  -0.0625000   0.8125000   0.0625000), wk =   0.0234375
        k(   23) = (   0.8125000  -0.0625000   0.9375000), wk =   0.0468750
        k(   24) = (   0.6875000   0.0625000   0.8125000), wk =   0.0468750
        k(   25) = (   0.5625000   0.1875000   0.6875000), wk =   0.0468750
        k(   26) = (   0.4375000   0.3125000   0.5625000), wk =   0.0468750
        k(   27) = (  -0.0625000  -0.9375000   0.0625000), wk =   0.0234375
        k(   28) = (  -0.1875000  -0.8125000  -0.0625000), wk =   0.0468750
        k(   29) = (  -0.3125000  -0.6875000  -0.1875000), wk =   0.0468750
        k(   30) = (  -0.0625000  -0.6875000   0.0625000), wk =   0.0234375
        k(   31) = (  -0.1875000  -0.5625000  -0.0625000), wk =   0.0468750
        k(   32) = (  -0.0625000  -0.4375000   0.0625000), wk =   0.0234375
        k(   33) = (  -0.1875000   0.1875000   0.1875000), wk =   0.0078125
        k(   34) = (  -0.3125000   0.3125000   0.0625000), wk =   0.0234375
        k(   35) = (  -0.4375000   0.4375000  -0.0625000), wk =   0.0234375
        k(   36) = (   0.4375000  -0.4375000   0.8125000), wk =   0.0234375
        k(   37) = (   0.3125000  -0.3125000   0.6875000), wk =   0.0234375
        k(   38) = (   0.1875000  -0.1875000   0.5625000), wk =   0.0234375
        k(   39) = (  -0.1875000   0.4375000   0.1875000), wk =   0.0234375
        k(   40) = (  -0.3125000   0.5625000   0.0625000), wk =   0.0468750
        k(   41) = (   0.5625000  -0.3125000   0.9375000), wk =   0.0468750
        k(   42) = (   0.4375000  -0.1875000   0.8125000), wk =   0.0468750
        k(   43) = (   0.3125000  -0.0625000   0.6875000), wk =   0.0468750
        k(   44) = (  -0.1875000   0.6875000   0.1875000), wk =   0.0234375
        k(   45) = (   0.6875000  -0.1875000   1.0625000), wk =   0.0468750
        k(   46) = (   0.5625000  -0.0625000   0.9375000), wk =   0.0468750
        k(   47) = (   0.4375000   0.0625000   0.8125000), wk =   0.0468750
        k(   48) = (  -0.1875000  -1.0625000   0.1875000), wk =   0.0234375
        k(   49) = (  -0.3125000  -0.9375000   0.0625000), wk =   0.0468750
        k(   50) = (  -0.1875000  -0.8125000   0.1875000), wk =   0.0234375
        k(   51) = (  -0.3125000   0.3125000   0.3125000), wk =   0.0078125
        k(   52) = (  -0.4375000   0.4375000   0.1875000), wk =   0.0234375
        k(   53) = (   0.4375000  -0.4375000   1.0625000), wk =   0.0234375
        k(   54) = (   0.3125000  -0.3125000   0.9375000), wk =   0.0234375
        k(   55) = (  -0.3125000   0.5625000   0.3125000), wk =   0.0234375
        k(   56) = (   0.5625000  -0.3125000   1.1875000), wk =   0.0468750
        k(   57) = (   0.4375000  -0.1875000   1.0625000), wk =   0.0468750
        k(   58) = (  -0.3125000  -1.1875000   0.3125000), wk =   0.0234375
        k(   59) = (  -0.4375000   0.4375000   0.4375000), wk =   0.0078125
        k(   60) = (   0.4375000  -0.4375000   1.3125000), wk =   0.0234375

     Dense  grid:    36853 G-vectors     FFT dimensions: (  48,  48,  48)

     Estimated max dynamical RAM per process >      14.35 MB

     Estimated total dynamical RAM >     229.65 MB

     Initial potential from superposition of free atoms

     starting charge       6.0000, renormalised to       8.0000
     Starting wfcs are   18 randomized atomic wfcs

     total cpu time spent up to now is        0.9 secs

     Self-consistent Calculation

     iteration #  1     ecut=    80.00 Ry     beta= 0.15
     Davidson diagonalization with overlap
     ethr =  1.00E-02,  avg # of iterations =  1.0

     total cpu time spent up to now is        1.3 secs

     total energy              =     -15.79065950 Ry
     estimated scf accuracy    <       0.10361171 Ry

     iteration #  2     ecut=    80.00 Ry     beta= 0.15
     Davidson diagonalization with overlap
     ethr =  1.30E-03,  avg # of iterations =  1.0

     total cpu time spent up to now is        1.6 secs

     total energy              =     -15.76121434 Ry
     estimated scf accuracy    <       0.07055588 Ry

     iteration #  3     ecut=    80.00 Ry     beta= 0.15
     Davidson diagonalization with overlap
     ethr =  8.82E-04,  avg # of iterations =  2.0

     total cpu time spent up to now is        2.0 secs

     total energy              =     -15.77334621 Ry
     estimated scf accuracy    <       0.00592112 Ry

     iteration #  4     ecut=    80.00 Ry     beta= 0.15
     Davidson diagonalization with overlap
     ethr =  7.40E-05,  avg # of iterations =  1.4

     total cpu time spent up to now is        2.4 secs

     total energy              =     -15.77249125 Ry
     estimated scf accuracy    <       0.00463126 Ry

     iteration #  5     ecut=    80.00 Ry     beta= 0.15
     Davidson diagonalization with overlap
     ethr =  5.79E-05,  avg # of iterations =  1.0

     total cpu time spent up to now is        2.7 secs

     total energy              =     -15.77193209 Ry
     estimated scf accuracy    <       0.00218201 Ry

     iteration #  6     ecut=    80.00 Ry     beta= 0.15
     Davidson diagonalization with overlap
     ethr =  2.73E-05,  avg # of iterations =  2.7

     total cpu time spent up to now is        3.2 secs

     total energy              =     -15.77405275 Ry
     estimated scf accuracy    <       0.00321445 Ry

     iteration #  7     ecut=    80.00 Ry     beta= 0.15
     Davidson diagonalization with overlap
     ethr =  2.73E-05,  avg # of iterations =  1.0

     total cpu time spent up to now is        3.5 secs

     total energy              =     -15.77119471 Ry
     estimated scf accuracy    <       0.00472617 Ry

     iteration #  8     ecut=    80.00 Ry     beta= 0.15
     Davidson diagonalization with overlap
     ethr =  2.73E-05,  avg # of iterations =  2.2

     total cpu time spent up to now is        4.0 secs

     total energy              =     -15.77227074 Ry
     estimated scf accuracy    <       0.00006692 Ry

     iteration #  9     ecut=    80.00 Ry     beta= 0.15
     Davidson diagonalization with overlap
     ethr =  8.36E-07,  avg # of iterations =  4.9

     total cpu time spent up to now is        4.6 secs

     total energy              =     -15.77242017 Ry
     estimated scf accuracy    <       0.00043925 Ry

     iteration # 10     ecut=    80.00 Ry     beta= 0.15
     Davidson diagonalization with overlap
     ethr =  8.36E-07,  avg # of iterations =  1.0

     total cpu time spent up to now is        4.9 secs

     total energy              =     -15.77239800 Ry
     estimated scf accuracy    <       0.00052524 Ry

     iteration # 11     ecut=    80.00 Ry     beta= 0.15
     Davidson diagonalization with overlap
     ethr =  8.36E-07,  avg # of iterations =  1.0

     total cpu time spent up to now is        5.2 secs

     total energy              =     -15.77208765 Ry
     estimated scf accuracy    <       0.00048553 Ry

     iteration # 12     ecut=    80.00 Ry     beta= 0.15
     Davidson diagonalization with overlap
     ethr =  8.36E-07,  avg # of iterations =  3.9

     total cpu time spent up to now is        5.8 secs

     total energy              =     -15.77221105 Ry
     estimated scf accuracy    <       0.00005733 Ry

     iteration # 13     ecut=    80.00 Ry     beta= 0.15
     Davidson diagonalization with overlap
     ethr =  7.17E-07,  avg # of iterations =  2.1

     total cpu time spent up to now is        6.3 secs

     total energy              =     -15.77222448 Ry
     estimated scf accuracy    <       0.00000292 Ry

     iteration # 14     ecut=    80.00 Ry     beta= 0.15
     Davidson diagonalization with overlap
     ethr =  3.65E-08,  avg # of iterations =  2.4

     total cpu time spent up to now is        6.7 secs

     total energy              =     -15.77222611 Ry
     estimated scf accuracy    <       0.00000200 Ry

     iteration # 15     ecut=    80.00 Ry     beta= 0.15
     Davidson diagonalization with overlap
     ethr =  2.50E-08,  avg # of iterations =  1.4

     total cpu time spent up to now is        7.1 secs

     total energy              =     -15.77222359 Ry
     estimated scf accuracy    <       0.00000395 Ry

     iteration # 16     ecut=    80.00 Ry     beta= 0.15
     Davidson diagonalization with overlap
     ethr =  2.50E-08,  avg # of iterations =  3.4

     total cpu time spent up to now is        7.7 secs

     total energy              =     -15.77223030 Ry
     estimated scf accuracy    <       0.00000404 Ry

     iteration # 17     ecut=    80.00 Ry     beta= 0.15
     Davidson diagonalization with overlap
     ethr =  2.50E-08,  avg # of iterations =  2.6

     total cpu time spent up to now is        8.2 secs

     total energy              =     -15.77223074 Ry
     estimated scf accuracy    <       0.00001765 Ry

     iteration # 18     ecut=    80.00 Ry     beta= 0.15
     Davidson diagonalization with overlap
     ethr =  2.50E-08,  avg # of iterations =  1.0

     total cpu time spent up to now is        8.5 secs

     total energy              =     -15.77222475 Ry
     estimated scf accuracy    <       0.00001660 Ry

     iteration # 19     ecut=    80.00 Ry     beta= 0.15
     Davidson diagonalization with overlap
     ethr =  2.50E-08,  avg # of iterations =  2.1

     total cpu time spent up to now is        9.0 secs

     total energy              =     -15.77222549 Ry
     estimated scf accuracy    <       0.00000361 Ry

     iteration # 20     ecut=    80.00 Ry     beta= 0.15
     Davidson diagonalization with overlap
     ethr =  2.50E-08,  avg # of iterations =  1.0

     total cpu time spent up to now is        9.4 secs

     total energy              =     -15.77222415 Ry
     estimated scf accuracy    <       0.00000277 Ry

     iteration # 21     ecut=    80.00 Ry     beta= 0.15
     Davidson diagonalization with overlap
     ethr =  2.50E-08,  avg # of iterations =  2.1

     total cpu time spent up to now is       10.0 secs

     total energy              =     -15.77222501 Ry
     estimated scf accuracy    <       0.00000002 Ry

     iteration # 22     ecut=    80.00 Ry     beta= 0.15
     Davidson diagonalization with overlap
     ethr =  2.52E-10,  avg # of iterations =  5.2

     total cpu time spent up to now is       10.8 secs

     total energy              =     -15.77222448 Ry
     estimated scf accuracy    <       0.00000126 Ry

     iteration # 23     ecut=    80.00 Ry     beta= 0.15
     Davidson diagonalization with overlap
     ethr =  2.52E-10,  avg # of iterations =  5.8

     total cpu time spent up to now is       11.6 secs

     total energy              =     -15.77222476 Ry
     estimated scf accuracy    <          1.1E-09 Ry

     iteration # 24     ecut=    80.00 Ry     beta= 0.15
     Davidson diagonalization with overlap
     ethr =  1.39E-11,  avg # of iterations =  7.9

     total cpu time spent up to now is       12.6 secs

     total energy              =     -15.77222466 Ry
     estimated scf accuracy    <       0.00000038 Ry

     iteration # 25     ecut=    80.00 Ry     beta= 0.15
     Davidson diagonalization with overlap
     ethr =  1.39E-11,  avg # of iterations =  7.3

     total cpu time spent up to now is       13.5 secs

     total energy              =     -15.77222469 Ry
     estimated scf accuracy    <       0.00000001 Ry

     iteration # 26     ecut=    80.00 Ry     beta= 0.15
     Davidson diagonalization with overlap
     ethr =  1.39E-11,  avg # of iterations =  5.0

     total cpu time spent up to now is       14.1 secs

     total energy              =     -15.77222470 Ry
     estimated scf accuracy    <          5.2E-09 Ry

     iteration # 27     ecut=    80.00 Ry     beta= 0.15
     Davidson diagonalization with overlap
     ethr =  1.39E-11,  avg # of iterations =  1.9

     total cpu time spent up to now is       14.5 secs

     total energy              =     -15.77222470 Ry
     estimated scf accuracy    <          8.2E-09 Ry

     iteration # 28     ecut=    80.00 Ry     beta= 0.15
     Davidson diagonalization with overlap
     ethr =  1.39E-11,  avg # of iterations =  1.2

     total cpu time spent up to now is       14.9 secs

     total energy              =     -15.77222470 Ry
     estimated scf accuracy    <       0.00000001 Ry

     iteration # 29     ecut=    80.00 Ry     beta= 0.15
     Davidson diagonalization with overlap
     ethr =  1.39E-11,  avg # of iterations =  3.5

     total cpu time spent up to now is       15.4 secs

     End of self-consistent calculation

          k =-0.0625 0.0625 0.0625 (  4630 PWs)   bands (ev):

    -7.0888   3.4387   4.3176   4.3176

          k =-0.1875 0.1875-0.0625 (  4637 PWs)   bands (ev):

    -6.8833   1.9121   3.6120   4.1920

          k =-0.3125 0.3125-0.1875 (  4638 PWs)   bands (ev):

    -6.4014   0.0119   3.1027   3.7579

          k =-0.4375 0.4375-0.3125 (  4622 PWs)   bands (ev):

    -5.7898  -1.4824   2.8522   3.3710

          k = 0.4375-0.4375 0.5625 (  4593 PWs)   bands (ev):

    -5.5356  -1.9633   2.8675   3.1763

          k = 0.3125-0.3125 0.4375 (  4628 PWs)   bands (ev):

    -5.9875  -1.0613   3.1298   3.2226

          k = 0.1875-0.1875 0.3125 (  4630 PWs)   bands (ev):

    -6.5873   0.6253   3.5092   3.5809

          k = 0.0625-0.0625 0.1875 (  4621 PWs)   bands (ev):

    -6.9851   2.5783   3.9615   4.0303

          k =-0.0625 0.3125 0.0625 (  4635 PWs)   bands (ev):

    -6.7798   1.6300   3.4685   3.4752

          k =-0.1875 0.4375-0.0625 (  4632 PWs)   bands (ev):

    -6.3868   0.3191   2.5840   3.2353

          k =-0.3125 0.5625-0.1875 (  4615 PWs)   bands (ev):

    -5.7969  -1.1208   2.0368   2.8877

          k = 0.5625-0.3125 0.6875 (  4610 PWs)   bands (ev):

    -5.3561  -1.9398   1.7452   2.8090

          k = 0.4375-0.1875 0.5625 (  4618 PWs)   bands (ev):

    -5.6086  -1.4899   1.7270   3.0501

          k = 0.3125-0.0625 0.4375 (  4631 PWs)   bands (ev):

    -6.2089  -0.1938   2.1007   3.4920

          k = 0.1875 0.0625 0.3125 (  4636 PWs)   bands (ev):

    -6.6820   1.1209   3.0959   3.8177

          k =-0.0625 0.5625 0.0625 (  4625 PWs)   bands (ev):

    -6.0888  -0.2372   2.4519   2.5562

          k =-0.1875 0.6875-0.0625 (  4625 PWs)   bands (ev):

    -5.5691  -1.2206   1.7782   2.2543

          k = 0.6875-0.1875 0.8125 (  4608 PWs)   bands (ev):

    -5.0678  -1.9835   1.0689   2.2204

          k = 0.5625-0.0625 0.6875 (  4599 PWs)   bands (ev):

    -5.1143  -1.9109   0.7941   2.5167

          k = 0.4375 0.0625 0.5625 (  4623 PWs)   bands (ev):

    -5.6369  -1.2295   1.2757   3.0206

          k = 0.3125 0.1875 0.4375 (  4630 PWs)   bands (ev):

    -6.1326  -0.5817   2.5879   3.3915

          k =-0.0625 0.8125 0.0625 (  4620 PWs)   bands (ev):

    -5.1586  -1.8523   1.8359   1.9967

          k = 0.8125-0.0625 0.9375 (  4620 PWs)   bands (ev):

    -4.7858  -2.3262   1.3997   1.8134

          k = 0.6875 0.0625 0.8125 (  4608 PWs)   bands (ev):

    -4.8313  -2.2251   0.8302   2.0909

          k = 0.5625 0.1875 0.6875 (  4604 PWs)   bands (ev):

    -5.1971  -1.9571   1.1606   2.6142

          k = 0.4375 0.3125 0.5625 (  4607 PWs)   bands (ev):

    -5.5667  -1.7845   2.3656   3.0996

          k =-0.0625-0.9375 0.0625 (  4624 PWs)   bands (ev):

    -4.7983  -2.3531   1.7101   1.8815

          k =-0.1875-0.8125-0.0625 (  4615 PWs)   bands (ev):

    -5.1191  -1.8840   1.5284   1.9603

          k =-0.3125-0.6875-0.1875 (  4616 PWs)   bands (ev):

    -5.4233  -1.5945   1.4998   2.4843

          k =-0.0625-0.6875 0.0625 (  4629 PWs)   bands (ev):

    -5.6329  -1.1009   2.0851   2.2239

          k =-0.1875-0.5625-0.0625 (  4630 PWs)   bands (ev):

    -6.0085  -0.4687   2.1357   2.6886

          k =-0.0625-0.4375 0.0625 (  4614 PWs)   bands (ev):

    -6.4778   0.6826   2.9244   2.9800

          k =-0.1875 0.1875 0.1875 (  4645 PWs)   bands (ev):

    -6.7837   1.3277   3.9185   3.9185

          k =-0.3125 0.3125 0.0625 (  4630 PWs)   bands (ev):

    -6.4894   0.4687   2.5893   3.8995

          k =-0.4375 0.4375-0.0625 (  4630 PWs)   bands (ev):

    -5.9533  -0.7272   1.6429   3.4455

          k = 0.4375-0.4375 0.8125 (  4611 PWs)   bands (ev):

    -5.3969  -1.7789   1.4143   2.9710

          k = 0.3125-0.3125 0.6875 (  4618 PWs)   bands (ev):

    -5.3847  -1.8039   1.6444   2.6966

          k = 0.1875-0.1875 0.5625 (  4629 PWs)   bands (ev):

    -5.9355  -0.7384   2.2081   2.6981

          k =-0.1875 0.4375 0.1875 (  4632 PWs)   bands (ev):

    -6.3004  -0.0708   2.8891   3.0813

          k =-0.3125 0.5625 0.0625 (  4624 PWs)   bands (ev):

    -5.8537  -0.8320   1.6904   2.8894

          k = 0.5625-0.3125 0.9375 (  4607 PWs)   bands (ev):

    -5.2898  -1.6759   1.0317   2.4258

          k = 0.4375-0.1875 0.8125 (  4606 PWs)   bands (ev):

    -5.0455  -2.0288   0.9972   2.1696

          k = 0.3125-0.0625 0.6875 (  4615 PWs)   bands (ev):

    -5.4494  -1.4292   1.3850   2.3145

          k =-0.1875 0.6875 0.1875 (  4614 PWs)   bands (ev):

    -5.5171  -1.3682   1.6444   2.3921

          k = 0.6875-0.1875 1.0625 (  4615 PWs)   bands (ev):

    -5.0493  -1.9482   1.1950   1.8717

          k = 0.5625-0.0625 0.9375 (  4617 PWs)   bands (ev):

    -4.7549  -2.2572   0.9501   1.4861

          k = 0.4375 0.0625 0.8125 (  4610 PWs)   bands (ev):

    -4.9658  -2.0381   0.9286   1.8671

          k =-0.1875-1.0625 0.1875 (  4617 PWs)   bands (ev):

    -4.7989  -2.2910   1.0466   2.0729

          k =-0.3125-0.9375 0.0625 (  4608 PWs)   bands (ev):

    -4.7678  -2.2865   1.1135   1.6249

          k =-0.1875-0.8125 0.1875 (  4613 PWs)   bands (ev):

    -5.0983  -1.9235   1.2488   2.1807

          k =-0.3125 0.3125 0.3125 (  4615 PWs)   bands (ev):

    -6.2303  -0.5464   3.5134   3.5134

          k =-0.4375 0.4375 0.1875 (  4617 PWs)   bands (ev):

    -5.8951  -1.0722   2.1560   3.4228

          k = 0.4375-0.4375 1.0625 (  4611 PWs)   bands (ev):

    -5.3793  -1.6008   0.9635   2.9199

          k = 0.3125-0.3125 0.9375 (  4602 PWs)   bands (ev):

    -4.9524  -2.0992   0.7186   2.4348

          k =-0.3125 0.5625 0.3125 (  4610 PWs)   bands (ev):

    -5.6939  -1.4868   2.3806   2.9376

          k = 0.5625-0.3125 1.1875 (  4613 PWs)   bands (ev):

    -5.3078  -1.8122   1.3310   2.5592

          k = 0.4375-0.1875 1.0625 (  4607 PWs)   bands (ev):

    -4.8882  -2.1365   0.7932   1.9679

          k =-0.3125-1.1875 0.3125 (  4610 PWs)   bands (ev):

    -5.1145  -2.0058   1.0546   2.5242

          k =-0.4375 0.4375 0.4375 (  4612 PWs)   bands (ev):

    -5.6596  -1.8021   3.2860   3.2860

          k = 0.4375-0.4375 1.3125 (  4605 PWs)   bands (ev):

    -5.4452  -1.9431   2.1142   3.0631

     highest occupied level (ev):     4.3176

!    total energy              =     -15.77222470 Ry
     estimated scf accuracy    <          4.7E-11 Ry

     The total energy is the sum of the following terms:
     one-electron contribution =       3.09516311 Ry
     hartree contribution      =       1.14908132 Ry
     xc contribution           =      -4.39589260 Ry
     ewald contribution        =     -15.62057652 Ry

     convergence has been achieved in  29 iterations


     Computing stress (Cartesian axis) and pressure

          total   stress  (Ry/bohr**3)                   (kbar)     P=      -28.79
  -0.00019572  -0.00000000   0.00000000          -28.79       -0.00        0.00
  -0.00000000  -0.00019572   0.00000000           -0.00      -28.79        0.00
   0.00000000   0.00000000  -0.00019572            0.00        0.00      -28.79


     BFGS Geometry Optimization
     Energy error            =      0.0E+00 Ry
     Gradient error          =      0.0E+00 Ry/Bohr
     Cell gradient error     =      2.9E+01 kbar

     number of scf cycles    =   1
     number of bfgs steps    =   0

     enthalpy           new  =     -15.7722246989 Ry

     new trust radius        =       0.0191303463 bohr
ibrav =      2
 celldm(1) =     11.46327397
Input lattice vectors:
    -0.49755356     0.00000000     0.49755356
     0.00000000     0.49755356     0.49755356
    -0.49755356     0.49755356     0.00000000
New lattice vectors in INITIAL alat:
    -0.49755356     0.00000000     0.49755356
     0.00000000     0.49755356     0.49755356
    -0.49755356     0.49755356     0.00000000
New lattice vectors in NEW alat (for information only):
    -0.50000000     0.00000000     0.50000000
     0.00000000     0.50000000     0.50000000
    -0.50000000     0.50000000     0.00000000
Discrepancy in bohr =     0.000000    0.000000    0.000000
     new conv_thr            =       0.0000000010 Ry

     new unit-cell volume =    376.58761 a.u.^3 (    55.80453 Ang^3 )
     density =      5.69784 g/cm^3

CELL_PARAMETERS (alat= 11.51963817)
  -0.497553560   0.000000000   0.497553560
   0.000000000   0.497553560   0.497553560
  -0.497553560   0.497553560   0.000000000

ATOMIC_POSITIONS (crystal)
Ga            0.0000000000        0.0000000000        0.0000000000    0   0   0
Sb            0.2500000000        0.2500000000        0.2500000000    0   0   0



     Writing config-only to output data dir ./work/GaSb.save/
     NEW-OLD atomic charge density approx. for the potential
     extrapolated charge    7.91106, renormalised to    8.00000

     total cpu time spent up to now is       16.2 secs

     Self-consistent Calculation

     iteration #  1     ecut=    80.00 Ry     beta= 0.15
     Davidson diagonalization with overlap
     ethr =  1.00E-06,  avg # of iterations =  4.8

     total cpu time spent up to now is       16.8 secs

     total energy              =     -15.77311565 Ry
     estimated scf accuracy    <       0.00007753 Ry

     iteration #  2     ecut=    80.00 Ry     beta= 0.15
     Davidson diagonalization with overlap
     ethr =  9.69E-07,  avg # of iterations =  2.9

     total cpu time spent up to now is       17.3 secs

     total energy              =     -15.77319294 Ry
     estimated scf accuracy    <       0.00000405 Ry

     iteration #  3     ecut=    80.00 Ry     beta= 0.15
     Davidson diagonalization with overlap
     ethr =  5.06E-08,  avg # of iterations =  3.5

     total cpu time spent up to now is       17.8 secs

     total energy              =     -15.77319474 Ry
     estimated scf accuracy    <       0.00000288 Ry

     iteration #  4     ecut=    80.00 Ry     beta= 0.15
     Davidson diagonalization with overlap
     ethr =  3.59E-08,  avg # of iterations =  1.0

     total cpu time spent up to now is       18.1 secs

     total energy              =     -15.77319465 Ry
     estimated scf accuracy    <       0.00000127 Ry

     iteration #  5     ecut=    80.00 Ry     beta= 0.15
     Davidson diagonalization with overlap
     ethr =  1.59E-08,  avg # of iterations =  1.6

     total cpu time spent up to now is       18.5 secs

     total energy              =     -15.77319473 Ry
     estimated scf accuracy    <       0.00000005 Ry

     iteration #  6     ecut=    80.00 Ry     beta= 0.15
     Davidson diagonalization with overlap
     ethr =  6.47E-10,  avg # of iterations =  3.1

     total cpu time spent up to now is       19.0 secs

     total energy              =     -15.77319473 Ry
     estimated scf accuracy    <       0.00000004 Ry

     iteration #  7     ecut=    80.00 Ry     beta= 0.15
     Davidson diagonalization with overlap
     ethr =  4.59E-10,  avg # of iterations =  1.3

     total cpu time spent up to now is       19.3 secs

     total energy              =     -15.77319473 Ry
     estimated scf accuracy    <          9.0E-09 Ry

     iteration #  8     ecut=    80.00 Ry     beta= 0.15
     Davidson diagonalization with overlap
     ethr =  1.13E-10,  avg # of iterations =  3.1

     total cpu time spent up to now is       19.8 secs

     total energy              =     -15.77319473 Ry
     estimated scf accuracy    <          1.9E-09 Ry

     iteration #  9     ecut=    80.00 Ry     beta= 0.15
     Davidson diagonalization with overlap
     ethr =  2.31E-11,  avg # of iterations =  2.4

     total cpu time spent up to now is       20.2 secs

     total energy              =     -15.77319473 Ry
     estimated scf accuracy    <          3.2E-09 Ry

     iteration # 10     ecut=    80.00 Ry     beta= 0.15
     Davidson diagonalization with overlap
     ethr =  2.31E-11,  avg # of iterations =  3.4

     total cpu time spent up to now is       20.8 secs

     total energy              =     -15.77319473 Ry
     estimated scf accuracy    <          3.4E-09 Ry

     iteration # 11     ecut=    80.00 Ry     beta= 0.15
     Davidson diagonalization with overlap
     ethr =  2.31E-11,  avg # of iterations =  1.1

     total cpu time spent up to now is       21.2 secs

     End of self-consistent calculation

          k =-0.0628 0.0628 0.0628 (  4630 PWs)   bands (ev):

    -7.0446   3.6136   4.4597   4.4597

          k =-0.1884 0.1884-0.0628 (  4637 PWs)   bands (ev):

    -6.8355   2.0633   3.7381   4.3319

          k =-0.3140 0.3140-0.1884 (  4638 PWs)   bands (ev):

    -6.3444   0.1275   3.2229   3.8890

          k =-0.4397 0.4397-0.3140 (  4622 PWs)   bands (ev):

    -5.7185  -1.3964   2.9706   3.4948

          k = 0.4397-0.4397 0.5653 (  4593 PWs)   bands (ev):

    -5.4568  -1.8886   2.9874   3.2963

          k = 0.3140-0.3140 0.4397 (  4628 PWs)   bands (ev):

    -5.9213  -0.9664   3.2543   3.3426

          k = 0.1884-0.1884 0.3140 (  4630 PWs)   bands (ev):

    -6.5340   0.7523   3.6337   3.7121

          k = 0.0628-0.0628 0.1884 (  4621 PWs)   bands (ev):

    -6.9391   2.7435   4.0946   4.1677

          k =-0.0628 0.3140 0.0628 (  4635 PWs)   bands (ev):

    -6.7302   1.7845   3.5912   3.6004

          k =-0.1884 0.4397-0.0628 (  4632 PWs)   bands (ev):

    -6.3298   0.4506   2.6912   3.3566

          k =-0.3140 0.5653-0.1884 (  4615 PWs)   bands (ev):

    -5.7268  -1.0201   2.1403   3.0014

          k = 0.5653-0.3140 0.6909 (  4610 PWs)   bands (ev):

    -5.2734  -1.8595   1.8462   2.9209

          k = 0.4397-0.1884 0.5653 (  4618 PWs)   bands (ev):

    -5.5335  -1.3980   1.8253   3.1671

          k = 0.3140-0.0628 0.4397 (  4631 PWs)   bands (ev):

    -6.1482  -0.0733   2.1996   3.6182

          k = 0.1884 0.0628 0.3140 (  4636 PWs)   bands (ev):

    -6.6306   1.2618   3.2122   3.9511

          k =-0.0628 0.5653 0.0628 (  4625 PWs)   bands (ev):

    -6.0261  -0.1092   2.5567   2.6627

          k =-0.1884 0.6909-0.0628 (  4625 PWs)   bands (ev):

    -5.4947  -1.1115   1.8708   2.3553

          k = 0.6909-0.1884 0.8165 (  4608 PWs)   bands (ev):

    -4.9784  -1.8940   1.1494   2.3209

          k = 0.5653-0.0628 0.6909 (  4599 PWs)   bands (ev):

    -5.0259  -1.8200   0.8688   2.6229

          k = 0.4397 0.0628 0.5653 (  4623 PWs)   bands (ev):

    -5.5631  -1.1259   1.3603   3.1368

          k = 0.3140 0.1884 0.4397 (  4630 PWs)   bands (ev):

    -6.0701  -0.4746   2.7006   3.5161

          k =-0.0628 0.8165 0.0628 (  4620 PWs)   bands (ev):

    -5.0736  -1.7563   1.9297   2.0940

          k = 0.8165-0.0628 0.9421 (  4620 PWs)   bands (ev):

    -4.6875  -2.2440   1.4846   1.9068

          k = 0.6909 0.0628 0.8165 (  4608 PWs)   bands (ev):

    -4.7339  -2.1406   0.9039   2.1892

          k = 0.5653 0.1884 0.6909 (  4604 PWs)   bands (ev):

    -5.1105  -1.8723   1.2469   2.7222

          k = 0.4397 0.3140 0.5653 (  4607 PWs)   bands (ev):

    -5.4895  -1.7037   2.4780   3.2178

          k =-0.0628-0.9421 0.0628 (  4624 PWs)   bands (ev):

    -4.7007  -2.2718   1.8018   1.9770

          k =-0.1884-0.8165-0.0628 (  4615 PWs)   bands (ev):

    -5.0326  -1.7890   1.6160   2.0560

          k =-0.3140-0.6909-0.1884 (  4616 PWs)   bands (ev):

    -5.3440  -1.4993   1.5917   2.5896

          k =-0.0628-0.6909 0.0628 (  4629 PWs)   bands (ev):

    -5.5603  -0.9883   2.1832   2.3249

          k =-0.1884-0.5653-0.0628 (  4630 PWs)   bands (ev):

    -5.9440  -0.3475   2.2350   2.7983

          k =-0.0628-0.4397 0.0628 (  4614 PWs)   bands (ev):

    -6.4227   0.8247   3.0382   3.0938

          k =-0.1884 0.1884 0.1884 (  4645 PWs)   bands (ev):

    -6.7341   1.4651   4.0517   4.0517

          k =-0.3140 0.3140 0.0628 (  4630 PWs)   bands (ev):

    -6.4343   0.5983   2.6965   4.0337

          k =-0.4397 0.4397-0.0628 (  4630 PWs)   bands (ev):

    -5.8870  -0.6159   1.7341   3.5704

          k = 0.4397-0.4397 0.8165 (  4611 PWs)   bands (ev):

    -5.3159  -1.6925   1.5066   3.0866

          k = 0.3140-0.3140 0.6909 (  4618 PWs)   bands (ev):

    -5.3035  -1.7180   1.7421   2.8066

          k = 0.1884-0.1884 0.5653 (  4629 PWs)   bands (ev):

    -5.8691  -0.6267   2.3132   2.8075

          k =-0.1884 0.4397 0.1884 (  4632 PWs)   bands (ev):

    -6.2415   0.0482   3.0088   3.1976

          k =-0.3140 0.5653 0.0628 (  4624 PWs)   bands (ev):

    -5.7854  -0.7198   1.7821   3.0031

          k = 0.5653-0.3140 0.9421 (  4607 PWs)   bands (ev):

    -5.2069  -1.5792   1.1113   2.5295

          k = 0.4397-0.1884 0.8165 (  4606 PWs)   bands (ev):

    -4.9548  -1.9419   1.0779   2.2679

          k = 0.3140-0.0628 0.6909 (  4615 PWs)   bands (ev):

    -5.3715  -1.3259   1.4709   2.4160

          k =-0.1884 0.6909 0.1884 (  4614 PWs)   bands (ev):

    -5.4410  -1.2649   1.7364   2.4963

          k = 0.6909-0.1884 1.0677 (  4615 PWs)   bands (ev):

    -4.9600  -1.8552   1.2766   1.9643

          k = 0.5653-0.0628 0.9421 (  4617 PWs)   bands (ev):

    -4.6548  -2.1726   1.0259   1.5708

          k = 0.4397 0.0628 0.8165 (  4610 PWs)   bands (ev):

    -4.8732  -1.9482   1.0051   1.9593

          k =-0.1884-1.0677 0.1884 (  4617 PWs)   bands (ev):

    -4.7008  -2.2080   1.1243   2.1718

          k =-0.3140-0.9421 0.0628 (  4608 PWs)   bands (ev):

    -4.6685  -2.2030   1.1926   1.7133

          k =-0.1884-0.8165 0.1884 (  4613 PWs)   bands (ev):

    -5.0106  -1.8306   1.3313   2.2813

          k =-0.3140 0.3140 0.3140 (  4615 PWs)   bands (ev):

    -6.1696  -0.4427   3.6393   3.6393

          k =-0.4397 0.4397 0.1884 (  4617 PWs)   bands (ev):

    -5.8271  -0.9741   2.2615   3.5474

          k = 0.4397-0.4397 1.0677 (  4611 PWs)   bands (ev):

    -5.2986  -1.5042   1.0421   3.0343

          k = 0.3140-0.3140 0.9421 (  4602 PWs)   bands (ev):

    -4.8588  -2.0124   0.7910   2.5402

          k =-0.3140 0.5653 0.3140 (  4610 PWs)   bands (ev):

    -5.6207  -1.3978   2.4937   3.0521

          k = 0.5653-0.3140 1.1933 (  4613 PWs)   bands (ev):

    -5.2247  -1.7240   1.4210   2.6656

          k = 0.4397-0.1884 1.0677 (  4607 PWs)   bands (ev):

    -4.7926  -2.0497   0.8668   2.0626

          k =-0.3140-1.1933 0.3140 (  4610 PWs)   bands (ev):

    -5.0257  -1.9202   1.1371   2.6312

          k =-0.4397 0.4397 0.4397 (  4612 PWs)   bands (ev):

    -5.5844  -1.7243   3.4082   3.4082

          k = 0.4397-0.4397 1.3190 (  4605 PWs)   bands (ev):

    -5.3645  -1.8655   2.2223   3.1806

     highest occupied level (ev):     4.4597

!    total energy              =     -15.77319473 Ry
     estimated scf accuracy    <          8.8E-10 Ry

     The total energy is the sum of the following terms:
     one-electron contribution =       3.19944043 Ry
     hartree contribution      =       1.13362633 Ry
     xc contribution           =      -4.40887956 Ry
     ewald contribution        =     -15.69738193 Ry

     convergence has been achieved in  11 iterations


     Computing stress (Cartesian axis) and pressure

          total   stress  (Ry/bohr**3)                   (kbar)     P=      -22.23
  -0.00015112   0.00000000   0.00000000          -22.23        0.00        0.00
   0.00000000  -0.00015112   0.00000000            0.00      -22.23        0.00
   0.00000000   0.00000000  -0.00015112            0.00        0.00      -22.23

     Energy error            =      9.7E-04 Ry
     Gradient error          =      0.0E+00 Ry/Bohr
     Cell gradient error     =      2.2E+01 kbar

     number of scf cycles    =   2
     number of bfgs steps    =   1

     enthalpy           old  =     -15.7722246989 Ry
     enthalpy           new  =     -15.7731947294 Ry

     CASE: enthalpy          _new < enthalpy          _old

     new trust radius        =       0.0286252315 bohr
ibrav =      2
 celldm(1) =     11.37872765
Input lattice vectors:
    -0.49388390    -0.00000000     0.49388390
    -0.00000000     0.49388390     0.49388390
    -0.49388390     0.49388390    -0.00000000
New lattice vectors in INITIAL alat:
    -0.49388390     0.00000000     0.49388390
     0.00000000     0.49388390     0.49388390
    -0.49388390     0.49388390     0.00000000
New lattice vectors in NEW alat (for information only):
    -0.50000000     0.00000000     0.50000000
     0.00000000     0.50000000     0.50000000
    -0.50000000     0.50000000     0.00000000
Discrepancy in bohr =     0.000000    0.000000    0.000000
     new conv_thr            =            1.0E-11 Ry

     new unit-cell volume =    368.31645 a.u.^3 (    54.57887 Ang^3 )
     density =      5.82579 g/cm^3

CELL_PARAMETERS (alat= 11.51963817)
  -0.493883900   0.000000000   0.493883900
   0.000000000   0.493883900   0.493883900
  -0.493883900   0.493883900   0.000000000

ATOMIC_POSITIONS (crystal)
Ga            0.0000000000        0.0000000000        0.0000000000    0   0   0
Sb            0.2500000000        0.2500000000        0.2500000000    0   0   0



     Writing config-only to output data dir ./work/GaSb.save/
     NEW-OLD atomic charge density approx. for the potential
     extrapolated charge    7.86526, renormalised to    8.00000

     total cpu time spent up to now is       22.1 secs

     Self-consistent Calculation

     iteration #  1     ecut=    80.00 Ry     beta= 0.15
     Davidson diagonalization with overlap
     ethr =  1.00E-06,  avg # of iterations =  5.9

     total cpu time spent up to now is       22.9 secs

     total energy              =     -15.77397676 Ry
     estimated scf accuracy    <       0.00017000 Ry

     iteration #  2     ecut=    80.00 Ry     beta= 0.15
     Davidson diagonalization with overlap
     ethr =  2.13E-06,  avg # of iterations =  2.8

     total cpu time spent up to now is       23.4 secs

     total energy              =     -15.77414349 Ry
     estimated scf accuracy    <       0.00000988 Ry

     iteration #  3     ecut=    80.00 Ry     beta= 0.15
     Davidson diagonalization with overlap
     ethr =  1.24E-07,  avg # of iterations =  3.2

     total cpu time spent up to now is       24.0 secs

     total energy              =     -15.77414672 Ry
     estimated scf accuracy    <       0.00000682 Ry

     iteration #  4     ecut=    80.00 Ry     beta= 0.15
     Davidson diagonalization with overlap
     ethr =  8.53E-08,  avg # of iterations =  1.0

     total cpu time spent up to now is       24.3 secs

     total energy              =     -15.77414668 Ry
     estimated scf accuracy    <       0.00000208 Ry

     iteration #  5     ecut=    80.00 Ry     beta= 0.15
     Davidson diagonalization with overlap
     ethr =  2.61E-08,  avg # of iterations =  1.4

     total cpu time spent up to now is       24.7 secs

     total energy              =     -15.77414680 Ry
     estimated scf accuracy    <       0.00000004 Ry

     iteration #  6     ecut=    80.00 Ry     beta= 0.15
     Davidson diagonalization with overlap
     ethr =  4.57E-10,  avg # of iterations =  5.1

     total cpu time spent up to now is       25.3 secs

     total energy              =     -15.77414683 Ry
     estimated scf accuracy    <       0.00000002 Ry

     iteration #  7     ecut=    80.00 Ry     beta= 0.15
     Davidson diagonalization with overlap
     ethr =  2.33E-10,  avg # of iterations =  2.4

     total cpu time spent up to now is       25.7 secs

     total energy              =     -15.77414684 Ry
     estimated scf accuracy    <          7.3E-09 Ry

     iteration #  8     ecut=    80.00 Ry     beta= 0.15
     Davidson diagonalization with overlap
     ethr =  9.09E-11,  avg # of iterations =  1.3

     total cpu time spent up to now is       26.1 secs

     total energy              =     -15.77414684 Ry
     estimated scf accuracy    <       0.00000001 Ry

     iteration #  9     ecut=    80.00 Ry     beta= 0.15
     Davidson diagonalization with overlap
     ethr =  9.09E-11,  avg # of iterations =  1.2

     total cpu time spent up to now is       26.4 secs

     total energy              =     -15.77414684 Ry
     estimated scf accuracy    <          2.1E-09 Ry

     iteration # 10     ecut=    80.00 Ry     beta= 0.15
     Davidson diagonalization with overlap
     ethr =  2.61E-11,  avg # of iterations =  3.6

     total cpu time spent up to now is       27.0 secs

     total energy              =     -15.77414684 Ry
     estimated scf accuracy    <          5.7E-09 Ry

     iteration # 11     ecut=    80.00 Ry     beta= 0.15
     Davidson diagonalization with overlap
     ethr =  2.61E-11,  avg # of iterations =  2.1

     total cpu time spent up to now is       27.4 secs

     total energy              =     -15.77414684 Ry
     estimated scf accuracy    <          2.3E-10 Ry

     iteration # 12     ecut=    80.00 Ry     beta= 0.15
     Davidson diagonalization with overlap
     ethr =  2.86E-12,  avg # of iterations =  1.9

     total cpu time spent up to now is       27.8 secs

     total energy              =     -15.77414684 Ry
     estimated scf accuracy    <          1.8E-10 Ry

     iteration # 13     ecut=    80.00 Ry     beta= 0.15
     Davidson diagonalization with overlap
     ethr =  2.22E-12,  avg # of iterations =  2.6

     total cpu time spent up to now is       28.2 secs

     total energy              =     -15.77414684 Ry
     estimated scf accuracy    <          1.7E-11 Ry

     iteration # 14     ecut=    80.00 Ry     beta= 0.15
     Davidson diagonalization with overlap
     ethr =  2.10E-13,  avg # of iterations =  3.5

     total cpu time spent up to now is       28.7 secs

     total energy              =     -15.77414684 Ry
     estimated scf accuracy    <          3.2E-11 Ry

     iteration # 15     ecut=    80.00 Ry     beta= 0.15
     Davidson diagonalization with overlap
     ethr =  2.10E-13,  avg # of iterations =  1.0

     total cpu time spent up to now is       29.0 secs

     total energy              =     -15.77414684 Ry
     estimated scf accuracy    <          3.8E-11 Ry

     iteration # 16     ecut=    80.00 Ry     beta= 0.15
     Davidson diagonalization with overlap
     ethr =  2.10E-13,  avg # of iterations =  2.0

     total cpu time spent up to now is       29.5 secs

     End of self-consistent calculation

          k =-0.0633 0.0633 0.0633 (  4630 PWs)   bands (ev):

    -6.9771   3.8765   4.6783   4.6783

          k =-0.1898 0.1898-0.0633 (  4637 PWs)   bands (ev):

    -6.7626   2.2931   3.9320   4.5474

          k =-0.3164 0.3164-0.1898 (  4638 PWs)   bands (ev):

    -6.2575   0.3037   3.4077   4.0908

          k =-0.4429 0.4429-0.3164 (  4622 PWs)   bands (ev):

    -5.6097  -1.2652   3.1526   3.6854

          k = 0.4429-0.4429 0.5695 (  4593 PWs)   bands (ev):

    -5.3363  -1.7749   3.1720   3.4809

          k = 0.3164-0.3164 0.4429 (  4628 PWs)   bands (ev):

    -5.8204  -0.8216   3.4459   3.5273

          k = 0.1898-0.1898 0.3164 (  4630 PWs)   bands (ev):

    -6.4527   0.9457   3.8251   3.9142

          k = 0.0633-0.0633 0.1898 (  4621 PWs)   bands (ev):

    -6.8689   2.9940   4.2993   4.3792

          k =-0.0633 0.3164 0.0633 (  4635 PWs)   bands (ev):

    -6.6546   2.0200   3.7800   3.7932

          k =-0.1898 0.4429-0.0633 (  4632 PWs)   bands (ev):

    -6.2429   0.6516   2.8562   3.5434

          k =-0.3164 0.5695-0.1898 (  4615 PWs)   bands (ev):

    -5.6200  -0.8663   2.3000   3.1764

          k = 0.5695-0.3164 0.6960 (  4610 PWs)   bands (ev):

    -5.1468  -1.7371   2.0020   3.0929

          k = 0.4429-0.1898 0.5695 (  4618 PWs)   bands (ev):

    -5.4188  -1.2577   1.9767   3.3470

          k = 0.3164-0.0633 0.4429 (  4631 PWs)   bands (ev):

    -6.0556   0.1108   2.3518   3.8125

          k = 0.1898 0.0633 0.3164 (  4636 PWs)   bands (ev):

    -6.5521   1.4766   3.3911   4.1565

          k =-0.0633 0.5695 0.0633 (  4625 PWs)   bands (ev):

    -5.9305   0.0871   2.7178   2.8265

          k =-0.1898 0.6960-0.0633 (  4625 PWs)   bands (ev):

    -5.3812  -0.9440   2.0132   2.5106

          k = 0.6960-0.1898 0.8226 (  4608 PWs)   bands (ev):

    -4.8417  -1.7568   1.2734   2.4754

          k = 0.5695-0.0633 0.6960 (  4599 PWs)   bands (ev):

    -4.8908  -1.6806   0.9837   2.7862

          k = 0.4429 0.0633 0.5695 (  4623 PWs)   bands (ev):

    -5.4505  -0.9672   1.4905   3.3155

          k = 0.3164 0.1898 0.4429 (  4630 PWs)   bands (ev):

    -5.9746  -0.3111   2.8740   3.7079

          k =-0.0633 0.8226 0.0633 (  4620 PWs)   bands (ev):

    -4.9439  -1.6088   2.0739   2.2438

          k = 0.8226-0.0633 0.9491 (  4620 PWs)   bands (ev):

    -4.5372  -2.1179   1.6152   2.0504

          k = 0.6960 0.0633 0.8226 (  4608 PWs)   bands (ev):

    -4.5848  -2.0110   1.0171   2.3403

          k = 0.5695 0.1898 0.6960 (  4604 PWs)   bands (ev):

    -4.9780  -1.7428   1.3799   2.8882

          k = 0.4429 0.3164 0.5695 (  4607 PWs)   bands (ev):

    -5.3716  -1.5805   2.6512   3.3997

          k =-0.0633-0.9491 0.0633 (  4624 PWs)   bands (ev):

    -4.5516  -2.1471   1.9428   2.1240

          k =-0.1898-0.8226-0.0633 (  4615 PWs)   bands (ev):

    -4.9005  -1.6429   1.7508   2.2032

          k =-0.3164-0.6960-0.1898 (  4616 PWs)   bands (ev):

    -5.2231  -1.3536   1.7334   2.7516

          k =-0.0633-0.6960 0.0633 (  4629 PWs)   bands (ev):

    -5.4496  -0.8154   2.3341   2.4803

          k =-0.1898-0.5695-0.0633 (  4630 PWs)   bands (ev):

    -5.8455  -0.1617   2.3878   2.9670

          k =-0.0633-0.4429 0.0633 (  4614 PWs)   bands (ev):

    -6.3386   1.0421   3.2133   3.2687

          k =-0.1898 0.1898 0.1898 (  4645 PWs)   bands (ev):

    -6.6584   1.6740   4.2567   4.2567

          k =-0.3164 0.3164 0.0633 (  4630 PWs)   bands (ev):

    -6.3502   0.7960   2.8615   4.2403

          k =-0.4429 0.4429-0.0633 (  4630 PWs)   bands (ev):

    -5.7858  -0.4456   1.8744   3.7625

          k = 0.4429-0.4429 0.8226 (  4611 PWs)   bands (ev):

    -5.1921  -1.5606   1.6488   3.2643

          k = 0.3164-0.3164 0.6960 (  4618 PWs)   bands (ev):

    -5.1793  -1.5868   1.8927   2.9759

          k = 0.1898-0.1898 0.5695 (  4629 PWs)   bands (ev):

    -5.7678  -0.4560   2.4754   2.9758

          k =-0.1898 0.4429 0.1898 (  4632 PWs)   bands (ev):

    -6.1518   0.2297   3.1932   3.3764

          k =-0.3164 0.5695 0.0633 (  4624 PWs)   bands (ev):

    -5.6813  -0.5480   1.9234   3.1780

          k = 0.5695-0.3164 0.9491 (  4607 PWs)   bands (ev):

    -5.0804  -1.4309   1.2338   2.6889

          k = 0.4429-0.1898 0.8226 (  4606 PWs)   bands (ev):

    -4.8161  -1.8089   1.2022   2.4190

          k = 0.3164-0.0633 0.6960 (  4615 PWs)   bands (ev):

    -5.2526  -1.1674   1.6032   2.5720

          k =-0.1898 0.6960 0.1898 (  4614 PWs)   bands (ev):

    -5.3249  -1.1064   1.8780   2.6565

          k = 0.6960-0.1898 1.0757 (  4615 PWs)   bands (ev):

    -4.8236  -1.7124   1.4021   2.1067

          k = 0.5695-0.0633 0.9491 (  4617 PWs)   bands (ev):

    -4.5015  -2.0428   1.1424   1.7010

          k = 0.4429 0.0633 0.8226 (  4610 PWs)   bands (ev):

    -4.7316  -1.8101   1.1229   2.1008

          k =-0.1898-1.0757 0.1898 (  4617 PWs)   bands (ev):

    -4.5506  -2.0808   1.2436   2.3238

          k =-0.3164-0.9491 0.0633 (  4608 PWs)   bands (ev):

    -4.5165  -2.0748   1.3140   1.8490

          k =-0.1898-0.8226 0.1898 (  4613 PWs)   bands (ev):

    -4.8767  -1.6879   1.4581   2.4361

          k =-0.3164 0.3164 0.3164 (  4615 PWs)   bands (ev):

    -6.0770  -0.2847   3.8331   3.8331

          k =-0.4429 0.4429 0.1898 (  4617 PWs)   bands (ev):

    -5.7232  -0.8243   2.4241   3.7392

          k = 0.4429-0.4429 1.0757 (  4611 PWs)   bands (ev):

    -5.1754  -1.3564   1.1632   3.2103

          k = 0.3164-0.3164 0.9491 (  4602 PWs)   bands (ev):

    -4.7156  -1.8793   0.9022   2.7022

          k =-0.3164 0.5695 0.3164 (  4610 PWs)   bands (ev):

    -5.5089  -1.2621   2.6681   3.2283

          k = 0.5695-0.3164 1.2022 (  4613 PWs)   bands (ev):

    -5.0976  -1.5892   1.5599   2.8290

          k = 0.4429-0.1898 1.0757 (  4607 PWs)   bands (ev):

    -4.6464  -1.9164   0.9798   2.2081

          k =-0.3164-1.2022 0.3164 (  4610 PWs)   bands (ev):

    -4.8899  -1.7892   1.2642   2.7956

          k =-0.4429 0.4429 0.4429 (  4612 PWs)   bands (ev):

    -5.4694  -1.6057   3.5964   3.5964

          k = 0.4429-0.4429 1.3288 (  4605 PWs)   bands (ev):

    -5.2410  -1.7473   2.3888   3.3614

     highest occupied level (ev):     4.6783

!    total energy              =     -15.77414684 Ry
     estimated scf accuracy    <          3.3E-12 Ry

     The total energy is the sum of the following terms:
     one-electron contribution =       3.35807449 Ry
     hartree contribution      =       1.11051608 Ry
     xc contribution           =      -4.42872067 Ry
     ewald contribution        =     -15.81401674 Ry

     convergence has been achieved in  16 iterations


     Computing stress (Cartesian axis) and pressure

          total   stress  (Ry/bohr**3)                   (kbar)     P=      -11.39
  -0.00007746   0.00000000   0.00000000          -11.39        0.00        0.00
   0.00000000  -0.00007746  -0.00000000            0.00      -11.39       -0.00
   0.00000000  -0.00000000  -0.00007746            0.00       -0.00      -11.39

     Energy error            =      9.5E-04 Ry
     Gradient error          =      0.0E+00 Ry/Bohr
     Cell gradient error     =      1.1E+01 kbar

     number of scf cycles    =   3
     number of bfgs steps    =   2

     enthalpy           old  =     -15.7731947294 Ry
     enthalpy           new  =     -15.7741468389 Ry

     CASE: enthalpy          _new < enthalpy          _old

     new trust radius        =       0.0290986198 bohr
ibrav =      2
 celldm(1) =     11.29246446
Input lattice vectors:
    -0.49013972    -0.00000000     0.49013972
     0.00000000     0.49013972     0.49013972
    -0.49013972     0.49013972    -0.00000000
New lattice vectors in INITIAL alat:
    -0.49013972     0.00000000     0.49013972
     0.00000000     0.49013972     0.49013972
    -0.49013972     0.49013972     0.00000000
New lattice vectors in NEW alat (for information only):
    -0.50000000     0.00000000     0.50000000
     0.00000000     0.50000000     0.50000000
    -0.50000000     0.50000000     0.00000000
Discrepancy in bohr =     0.000000    0.000000    0.000000
     new conv_thr            =            1.0E-11 Ry

     new unit-cell volume =    360.00307 a.u.^3 (    53.34695 Ang^3 )
     density =      5.96032 g/cm^3

CELL_PARAMETERS (alat= 11.51963817)
  -0.490139720   0.000000000   0.490139720
   0.000000000   0.490139720   0.490139720
  -0.490139720   0.490139720   0.000000000

ATOMIC_POSITIONS (crystal)
Ga            0.0000000000        0.0000000000        0.0000000000    0   0   0
Sb            0.2500000000        0.2500000000        0.2500000000    0   0   0



     Writing config-only to output data dir ./work/GaSb.save/
     NEW-OLD atomic charge density approx. for the potential
     extrapolated charge    7.86145, renormalised to    8.00000

     total cpu time spent up to now is       30.3 secs

     Self-consistent Calculation

     iteration #  1     ecut=    80.00 Ry     beta= 0.15
     Davidson diagonalization with overlap
     ethr =  1.00E-06,  avg # of iterations =  5.9

     total cpu time spent up to now is       31.0 secs

     total energy              =     -15.77427286 Ry
     estimated scf accuracy    <       0.00017337 Ry

     iteration #  2     ecut=    80.00 Ry     beta= 0.15
     Davidson diagonalization with overlap
     ethr =  2.17E-06,  avg # of iterations =  2.8

     total cpu time spent up to now is       31.4 secs

     total energy              =     -15.77444410 Ry
     estimated scf accuracy    <       0.00001058 Ry

     iteration #  3     ecut=    80.00 Ry     beta= 0.15
     Davidson diagonalization with overlap
     ethr =  1.32E-07,  avg # of iterations =  3.2

     total cpu time spent up to now is       31.9 secs

     total energy              =     -15.77444730 Ry
     estimated scf accuracy    <       0.00000730 Ry

     iteration #  4     ecut=    80.00 Ry     beta= 0.15
     Davidson diagonalization with overlap
     ethr =  9.13E-08,  avg # of iterations =  1.0

     total cpu time spent up to now is       32.3 secs

     total energy              =     -15.77444730 Ry
     estimated scf accuracy    <       0.00000197 Ry

     iteration #  5     ecut=    80.00 Ry     beta= 0.15
     Davidson diagonalization with overlap
     ethr =  2.47E-08,  avg # of iterations =  1.5

     total cpu time spent up to now is       32.7 secs

     total energy              =     -15.77444741 Ry
     estimated scf accuracy    <       0.00000003 Ry

     iteration #  6     ecut=    80.00 Ry     beta= 0.15
     Davidson diagonalization with overlap
     ethr =  3.80E-10,  avg # of iterations =  5.1

     total cpu time spent up to now is       33.3 secs

     total energy              =     -15.77444744 Ry
     estimated scf accuracy    <       0.00000001 Ry

     iteration #  7     ecut=    80.00 Ry     beta= 0.15
     Davidson diagonalization with overlap
     ethr =  1.58E-10,  avg # of iterations =  2.4

     total cpu time spent up to now is       33.9 secs

     total energy              =     -15.77444745 Ry
     estimated scf accuracy    <          6.2E-09 Ry

     iteration #  8     ecut=    80.00 Ry     beta= 0.15
     Davidson diagonalization with overlap
     ethr =  7.71E-11,  avg # of iterations =  1.0

     total cpu time spent up to now is       34.3 secs

     total energy              =     -15.77444745 Ry
     estimated scf accuracy    <          6.6E-09 Ry

     iteration #  9     ecut=    80.00 Ry     beta= 0.15
     Davidson diagonalization with overlap
     ethr =  7.71E-11,  avg # of iterations =  1.9

     total cpu time spent up to now is       34.7 secs

     total energy              =     -15.77444745 Ry
     estimated scf accuracy    <          3.9E-10 Ry

     iteration # 10     ecut=    80.00 Ry     beta= 0.15
     Davidson diagonalization with overlap
     ethr =  4.89E-12,  avg # of iterations =  4.6

     total cpu time spent up to now is       35.4 secs

     total energy              =     -15.77444745 Ry
     estimated scf accuracy    <          3.4E-09 Ry

     iteration # 11     ecut=    80.00 Ry     beta= 0.15
     Davidson diagonalization with overlap
     ethr =  4.89E-12,  avg # of iterations =  3.2

     total cpu time spent up to now is       36.0 secs

     total energy              =     -15.77444745 Ry
     estimated scf accuracy    <          1.3E-10 Ry

     iteration # 12     ecut=    80.00 Ry     beta= 0.15
     Davidson diagonalization with overlap
     ethr =  1.62E-12,  avg # of iterations =  3.0

     total cpu time spent up to now is       36.5 secs

     total energy              =     -15.77444745 Ry
     estimated scf accuracy    <          6.1E-11 Ry

     iteration # 13     ecut=    80.00 Ry     beta= 0.15
     Davidson diagonalization with overlap
     ethr =  7.57E-13,  avg # of iterations =  1.0

     total cpu time spent up to now is       36.9 secs

     total energy              =     -15.77444745 Ry
     estimated scf accuracy    <          1.9E-11 Ry

     iteration # 14     ecut=    80.00 Ry     beta= 0.15
     Davidson diagonalization with overlap
     ethr =  2.32E-13,  avg # of iterations =  2.0

     total cpu time spent up to now is       37.3 secs

     End of self-consistent calculation

          k =-0.0638 0.0638 0.0638 (  4630 PWs)   bands (ev):

    -6.9069   4.1457   4.9085   4.9085

          k =-0.1913 0.1913-0.0638 (  4637 PWs)   bands (ev):

    -6.6867   2.5315   4.1361   4.7742

          k =-0.3188 0.3188-0.1913 (  4638 PWs)   bands (ev):

    -6.1670   0.4870   3.6023   4.3032

          k =-0.4463 0.4463-0.3188 (  4622 PWs)   bands (ev):

    -5.4963  -1.1287   3.3442   3.8860

          k = 0.4463-0.4463 0.5738 (  4593 PWs)   bands (ev):

    -5.2105  -1.6568   3.3663   3.6751

          k = 0.3188-0.3188 0.4463 (  4628 PWs)   bands (ev):

    -5.7152  -0.6709   3.6477   3.7216

          k = 0.1913-0.1913 0.3188 (  4630 PWs)   bands (ev):

    -6.3682   1.1467   4.0265   4.1270

          k = 0.0638-0.0638 0.1913 (  4621 PWs)   bands (ev):

    -6.7959   3.2531   4.5145   4.6021

          k =-0.0638 0.3188 0.0638 (  4635 PWs)   bands (ev):

    -6.5758   2.2653   3.9785   3.9964

          k =-0.1913 0.4463-0.0638 (  4632 PWs)   bands (ev):

    -6.1525   0.8613   3.0299   3.7401

          k =-0.3188 0.5738-0.1913 (  4615 PWs)   bands (ev):

    -5.5087  -0.7058   2.4685   3.3605

          k = 0.5738-0.3188 0.7013 (  4610 PWs)   bands (ev):

    -5.0147  -1.6098   2.1665   3.2738

          k = 0.4463-0.1913 0.5738 (  4618 PWs)   bands (ev):

    -5.2993  -1.1113   2.1366   3.5363

          k = 0.3188-0.0638 0.4463 (  4631 PWs)   bands (ev):

    -5.9592   0.3030   2.5120   4.0170

          k = 0.1913 0.0638 0.3188 (  4636 PWs)   bands (ev):

    -6.4705   1.7000   3.5792   4.3728

          k =-0.0638 0.5738 0.0638 (  4625 PWs)   bands (ev):

    -5.8311   0.2929   2.8873   2.9987

          k =-0.1913 0.7013-0.0638 (  4625 PWs)   bands (ev):

    -5.2632  -0.7681   2.1631   2.6738

          k = 0.7013-0.1913 0.8288 (  4608 PWs)   bands (ev):

    -4.6993  -1.6128   1.4039   2.6378

          k = 0.5738-0.0638 0.7013 (  4599 PWs)   bands (ev):

    -4.7498  -1.5344   1.1046   2.9579

          k = 0.4463 0.0638 0.5738 (  4623 PWs)   bands (ev):

    -5.3333  -0.8010   1.6277   3.5034

          k = 0.3188 0.1913 0.4463 (  4630 PWs)   bands (ev):

    -5.8753  -0.1409   3.0567   3.9098

          k =-0.0638 0.8288 0.0638 (  4620 PWs)   bands (ev):

    -4.8090  -1.4536   2.2256   2.4012

          k = 0.8288-0.0638 0.9564 (  4620 PWs)   bands (ev):

    -4.3802  -1.9855   1.7524   2.2013

          k = 0.7013 0.0638 0.8288 (  4608 PWs)   bands (ev):

    -4.4290  -1.8749   1.1360   2.4993

          k = 0.5738 0.1913 0.7013 (  4604 PWs)   bands (ev):

    -4.8397  -1.6077   1.5204   3.0628

          k = 0.4463 0.3188 0.5738 (  4607 PWs)   bands (ev):

    -5.2486  -1.4523   2.8337   3.5911

          k =-0.0638-0.9564 0.0638 (  4624 PWs)   bands (ev):

    -4.3959  -2.0162   2.0910   2.2784

          k =-0.1913-0.8288-0.0638 (  4615 PWs)   bands (ev):

    -4.7630  -1.4892   1.8924   2.3580

          k =-0.3188-0.7013-0.1913 (  4616 PWs)   bands (ev):

    -5.0971  -1.2013   1.8829   2.9218

          k =-0.0638-0.7013 0.0638 (  4629 PWs)   bands (ev):

    -5.3345  -0.6339   2.4928   2.6436

          k =-0.1913-0.5738-0.0638 (  4630 PWs)   bands (ev):

    -5.7431   0.0328   2.5487   3.1444

          k =-0.0638-0.4463 0.0638 (  4614 PWs)   bands (ev):

    -6.2512   1.2693   3.3977   3.4527

          k =-0.1913 0.1913 0.1913 (  4645 PWs)   bands (ev):

    -6.5796   1.8909   4.4724   4.4724

          k =-0.3188 0.3188 0.0638 (  4630 PWs)   bands (ev):

    -6.2627   1.0020   3.0351   4.4578

          k =-0.4463 0.4463-0.0638 (  4630 PWs)   bands (ev):

    -5.6805  -0.2677   2.0222   3.9647

          k = 0.4463-0.4463 0.8288 (  4611 PWs)   bands (ev):

    -5.0629  -1.4232   1.7990   3.4513

          k = 0.3188-0.3188 0.7013 (  4618 PWs)   bands (ev):

    -5.0499  -1.4500   2.0518   3.1539

          k = 0.1913-0.1913 0.5738 (  4629 PWs)   bands (ev):

    -5.6624  -0.2776   2.6465   3.1527

          k =-0.1913 0.4463 0.1913 (  4632 PWs)   bands (ev):

    -6.0584   0.4187   3.3878   3.5643

          k =-0.3188 0.5738 0.0638 (  4624 PWs)   bands (ev):

    -5.5728  -0.3683   2.0721   3.3619

          k = 0.5738-0.3188 0.9564 (  4607 PWs)   bands (ev):

    -4.9486  -1.2754   1.3628   2.8565

          k = 0.4463-0.1913 0.8288 (  4606 PWs)   bands (ev):

    -4.6713  -1.6697   1.3332   2.5778

          k = 0.3188-0.0638 0.7013 (  4615 PWs)   bands (ev):

    -5.1288  -1.0011   1.7424   2.7360

          k =-0.1913 0.7013 0.1913 (  4614 PWs)   bands (ev):

    -5.2040  -0.9404   2.0272   2.8249

          k = 0.7013-0.1913 1.0839 (  4615 PWs)   bands (ev):

    -4.6814  -1.5623   1.5341   2.2562

          k = 0.5738-0.0638 0.9564 (  4617 PWs)   bands (ev):

    -4.3413  -1.9065   1.2647   1.8377

          k = 0.4463 0.0638 0.8288 (  4610 PWs)   bands (ev):

    -4.5838  -1.6651   1.2468   2.2495

          k =-0.1913-1.0839 0.1913 (  4617 PWs)   bands (ev):

    -4.3937  -1.9471   1.3690   2.4837

          k =-0.3188-0.9564 0.0638 (  4608 PWs)   bands (ev):

    -4.3576  -1.9401   1.4416   1.9917

          k =-0.1913-0.8288 0.1913 (  4613 PWs)   bands (ev):

    -4.7372  -1.5379   1.5915   2.5988

          k =-0.3188 0.3188 0.3188 (  4615 PWs)   bands (ev):

    -5.9807  -0.1202   4.0370   4.0370

          k =-0.4463 0.4463 0.1913 (  4617 PWs)   bands (ev):

    -5.6151  -0.6681   2.5955   3.9410

          k = 0.4463-0.4463 1.0839 (  4611 PWs)   bands (ev):

    -5.0470  -1.2015   1.2907   3.3955

          k = 0.3188-0.3188 0.9564 (  4602 PWs)   bands (ev):

    -4.5661  -1.7397   1.0191   2.8726

          k =-0.3188 0.5738 0.3188 (  4610 PWs)   bands (ev):

    -5.3924  -1.1207   2.8520   3.4136

          k = 0.5738-0.3188 1.2114 (  4613 PWs)   bands (ev):

    -4.9652  -1.4484   1.7065   3.0008

          k = 0.4463-0.1913 1.0839 (  4607 PWs)   bands (ev):

    -4.4937  -1.7765   1.0986   2.3611

          k =-0.3188-1.2114 0.3188 (  4610 PWs)   bands (ev):

    -4.7482  -1.6523   1.3983   2.9686

          k =-0.4463 0.4463 0.4463 (  4612 PWs)   bands (ev):

    -5.3495  -1.4823   3.7943   3.7943

          k = 0.4463-0.4463 1.3389 (  4605 PWs)   bands (ev):

    -5.1121  -1.6244   2.5644   3.5516

     highest occupied level (ev):     4.9085

!    total energy              =     -15.77444745 Ry
     estimated scf accuracy    <          3.3E-12 Ry

     The total energy is the sum of the following terms:
     one-electron contribution =       3.52274058 Ry
     hartree contribution      =       1.08705973 Ry
     xc contribution           =      -4.44942766 Ry
     ewald contribution        =     -15.93482010 Ry

     convergence has been achieved in  14 iterations


     Computing stress (Cartesian axis) and pressure

          total   stress  (Ry/bohr**3)                   (kbar)     P=        1.03
   0.00000698   0.00000000  -0.00000000            1.03        0.00       -0.00
  -0.00000000   0.00000698   0.00000000           -0.00        1.03        0.00
   0.00000000   0.00000000   0.00000698            0.00        0.00        1.03

     Energy error            =      3.0E-04 Ry
     Gradient error          =      0.0E+00 Ry/Bohr
     Cell gradient error     =      1.0E+00 kbar

     number of scf cycles    =   4
     number of bfgs steps    =   3

     enthalpy           old  =     -15.7741468389 Ry
     enthalpy           new  =     -15.7744474462 Ry

     CASE: enthalpy          _new < enthalpy          _old

     new trust radius        =       0.0023616590 bohr
ibrav =      2
 celldm(1) =     11.29949231
Input lattice vectors:
    -0.49044476    -0.00000000     0.49044476
     0.00000000     0.49044476     0.49044476
    -0.49044476     0.49044476    -0.00000000
New lattice vectors in INITIAL alat:
    -0.49044476     0.00000000     0.49044476
     0.00000000     0.49044476     0.49044476
    -0.49044476     0.49044476     0.00000000
New lattice vectors in NEW alat (for information only):
    -0.50000000     0.00000000     0.50000000
     0.00000000     0.50000000     0.50000000
    -0.50000000     0.50000000     0.00000000
Discrepancy in bohr =     0.000000    0.000000    0.000000
     new conv_thr            =            1.0E-11 Ry

     new unit-cell volume =    360.67563 a.u.^3 (    53.44661 Ang^3 )
     density =      5.94921 g/cm^3

CELL_PARAMETERS (alat= 11.51963817)
  -0.490444758   0.000000000   0.490444758
   0.000000000   0.490444758   0.490444758
  -0.490444758   0.490444758   0.000000000

ATOMIC_POSITIONS (crystal)
Ga            0.0000000000        0.0000000000        0.0000000000    0   0   0
Sb            0.2500000000        0.2500000000        0.2500000000    0   0   0



     Writing config-only to output data dir ./work/GaSb.save/
     NEW-OLD atomic charge density approx. for the potential
     extrapolated charge    8.01119, renormalised to    8.00000

     total cpu time spent up to now is       38.1 secs

     Self-consistent Calculation

     iteration #  1     ecut=    80.00 Ry     beta= 0.15
     Davidson diagonalization with overlap
     ethr =  1.00E-06,  avg # of iterations =  1.0

     Threshold (ethr) on eigenvalues was too large:
     Diagonalizing with lowered threshold

     Davidson diagonalization with overlap
     ethr =  1.70E-08,  avg # of iterations =  3.8

     total cpu time spent up to now is       39.0 secs

     total energy              =     -15.77444849 Ry
     estimated scf accuracy    <       0.00000107 Ry

     iteration #  2     ecut=    80.00 Ry     beta= 0.15
     Davidson diagonalization with overlap
     ethr =  1.34E-08,  avg # of iterations =  3.0

     total cpu time spent up to now is       39.5 secs

     total energy              =     -15.77444968 Ry
     estimated scf accuracy    <       0.00000006 Ry

     iteration #  3     ecut=    80.00 Ry     beta= 0.15
     Davidson diagonalization with overlap
     ethr =  7.04E-10,  avg # of iterations =  3.4

     total cpu time spent up to now is       40.0 secs

     total energy              =     -15.77444970 Ry
     estimated scf accuracy    <       0.00000005 Ry

     iteration #  4     ecut=    80.00 Ry     beta= 0.15
     Davidson diagonalization with overlap
     ethr =  5.65E-10,  avg # of iterations =  1.0

     total cpu time spent up to now is       40.3 secs

     total energy              =     -15.77444969 Ry
     estimated scf accuracy    <       0.00000001 Ry

     iteration #  5     ecut=    80.00 Ry     beta= 0.15
     Davidson diagonalization with overlap
     ethr =  1.82E-10,  avg # of iterations =  1.9

     total cpu time spent up to now is       40.7 secs

     total energy              =     -15.77444970 Ry
     estimated scf accuracy    <          1.1E-09 Ry

     iteration #  6     ecut=    80.00 Ry     beta= 0.15
     Davidson diagonalization with overlap
     ethr =  1.34E-11,  avg # of iterations =  2.7

     total cpu time spent up to now is       41.1 secs

     total energy              =     -15.77444970 Ry
     estimated scf accuracy    <          1.7E-09 Ry

     iteration #  7     ecut=    80.00 Ry     beta= 0.15
     Davidson diagonalization with overlap
     ethr =  1.34E-11,  avg # of iterations =  1.0

     total cpu time spent up to now is       41.4 secs

     total energy              =     -15.77444970 Ry
     estimated scf accuracy    <          1.6E-09 Ry

     iteration #  8     ecut=    80.00 Ry     beta= 0.15
     Davidson diagonalization with overlap
     ethr =  1.34E-11,  avg # of iterations =  2.3

     total cpu time spent up to now is       41.9 secs

     total energy              =     -15.77444970 Ry
     estimated scf accuracy    <          7.1E-09 Ry

     iteration #  9     ecut=    80.00 Ry     beta= 0.15
     Davidson diagonalization with overlap
     ethr =  1.34E-11,  avg # of iterations =  2.0

     total cpu time spent up to now is       42.3 secs

     total energy              =     -15.77444970 Ry
     estimated scf accuracy    <          3.0E-09 Ry

     iteration # 10     ecut=    80.00 Ry     beta= 0.15
     Davidson diagonalization with overlap
     ethr =  1.34E-11,  avg # of iterations =  1.2

     total cpu time spent up to now is       42.6 secs

     total energy              =     -15.77444970 Ry
     estimated scf accuracy    <          1.4E-09 Ry

     iteration # 11     ecut=    80.00 Ry     beta= 0.15
     Davidson diagonalization with overlap
     ethr =  1.34E-11,  avg # of iterations =  1.0

     total cpu time spent up to now is       43.0 secs

     total energy              =     -15.77444970 Ry
     estimated scf accuracy    <          9.4E-10 Ry

     iteration # 12     ecut=    80.00 Ry     beta= 0.15
     Davidson diagonalization with overlap
     ethr =  1.18E-11,  avg # of iterations =  1.0

     total cpu time spent up to now is       43.3 secs

     total energy              =     -15.77444970 Ry
     estimated scf accuracy    <          8.6E-10 Ry

     iteration # 13     ecut=    80.00 Ry     beta= 0.15
     Davidson diagonalization with overlap
     ethr =  1.07E-11,  avg # of iterations =  1.0

     total cpu time spent up to now is       43.7 secs

     total energy              =     -15.77444970 Ry
     estimated scf accuracy    <          9.2E-10 Ry

     iteration # 14     ecut=    80.00 Ry     beta= 0.15
     Davidson diagonalization with overlap
     ethr =  1.07E-11,  avg # of iterations =  1.3

     total cpu time spent up to now is       44.1 secs

     total energy              =     -15.77444970 Ry
     estimated scf accuracy    <          1.6E-10 Ry

     iteration # 15     ecut=    80.00 Ry     beta= 0.15
     Davidson diagonalization with overlap
     ethr =  2.05E-12,  avg # of iterations =  2.8

     total cpu time spent up to now is       44.6 secs

     total energy              =     -15.77444970 Ry
     estimated scf accuracy    <          7.0E-11 Ry

     iteration # 16     ecut=    80.00 Ry     beta= 0.15
     Davidson diagonalization with overlap
     ethr =  8.76E-13,  avg # of iterations =  1.0

     total cpu time spent up to now is       44.9 secs

     total energy              =     -15.77444970 Ry
     estimated scf accuracy    <          4.9E-11 Ry

     iteration # 17     ecut=    80.00 Ry     beta= 0.15
     Davidson diagonalization with overlap
     ethr =  6.17E-13,  avg # of iterations =  1.0

     total cpu time spent up to now is       45.3 secs

     total energy              =     -15.77444970 Ry
     estimated scf accuracy    <          5.4E-11 Ry

     iteration # 18     ecut=    80.00 Ry     beta= 0.15
     Davidson diagonalization with overlap
     ethr =  6.17E-13,  avg # of iterations =  1.0

     total cpu time spent up to now is       45.7 secs

     total energy              =     -15.77444970 Ry
     estimated scf accuracy    <          1.6E-11 Ry

     iteration # 19     ecut=    80.00 Ry     beta= 0.15
     Davidson diagonalization with overlap
     ethr =  1.98E-13,  avg # of iterations =  1.2

     total cpu time spent up to now is       46.1 secs

     total energy              =     -15.77444970 Ry
     estimated scf accuracy    <          2.7E-11 Ry

     iteration # 20     ecut=    80.00 Ry     beta= 0.15
     Davidson diagonalization with overlap
     ethr =  1.98E-13,  avg # of iterations =  1.0

     total cpu time spent up to now is       46.5 secs

     total energy              =     -15.77444970 Ry
     estimated scf accuracy    <          2.6E-11 Ry

     iteration # 21     ecut=    80.00 Ry     beta= 0.15
     Davidson diagonalization with overlap
     ethr =  1.98E-13,  avg # of iterations =  2.0

     total cpu time spent up to now is       47.0 secs

     End of self-consistent calculation

          k =-0.0637 0.0637 0.0637 (  4630 PWs)   bands (ev):

    -6.9127   4.1237   4.8894   4.8894

          k =-0.1912 0.1912-0.0637 (  4637 PWs)   bands (ev):

    -6.6929   2.5120   4.1192   4.7554

          k =-0.3186 0.3186-0.1912 (  4638 PWs)   bands (ev):

    -6.1745   0.4719   3.5862   4.2856

          k =-0.4460 0.4460-0.3186 (  4622 PWs)   bands (ev):

    -5.5057  -1.1399   3.3284   3.8694

          k = 0.4460-0.4460 0.5735 (  4593 PWs)   bands (ev):

    -5.2208  -1.6665   3.3502   3.6591

          k = 0.3186-0.3186 0.4460 (  4628 PWs)   bands (ev):

    -5.7239  -0.6833   3.6310   3.7055

          k = 0.1912-0.1912 0.3186 (  4630 PWs)   bands (ev):

    -6.3751   1.1302   4.0098   4.1094

          k = 0.0637-0.0637 0.1912 (  4621 PWs)   bands (ev):

    -6.8019   3.2319   4.4967   4.5837

          k =-0.0637 0.3186 0.0637 (  4635 PWs)   bands (ev):

    -6.5823   2.2451   3.9621   3.9796

          k =-0.1912 0.4460-0.0637 (  4632 PWs)   bands (ev):

    -6.1600   0.8440   3.0155   3.7238

          k =-0.3186 0.5735-0.1912 (  4615 PWs)   bands (ev):

    -5.5179  -0.7190   2.4546   3.3453

          k = 0.5735-0.3186 0.7009 (  4610 PWs)   bands (ev):

    -5.0256  -1.6202   2.1529   3.2588

          k = 0.4460-0.1912 0.5735 (  4618 PWs)   bands (ev):

    -5.3092  -1.1234   2.1234   3.5206

          k = 0.3186-0.0637 0.4460 (  4631 PWs)   bands (ev):

    -5.9672   0.2872   2.4988   4.0001

          k = 0.1912 0.0637 0.3186 (  4636 PWs)   bands (ev):

    -6.4772   1.6816   3.5637   4.3549

          k =-0.0637 0.5735 0.0637 (  4625 PWs)   bands (ev):

    -5.8393   0.2759   2.8733   2.9844

          k =-0.1912 0.7009-0.0637 (  4625 PWs)   bands (ev):

    -5.2729  -0.7826   2.1507   2.6603

          k = 0.7009-0.1912 0.8283 (  4608 PWs)   bands (ev):

    -4.7110  -1.6247   1.3931   2.6244

          k = 0.5735-0.0637 0.7009 (  4599 PWs)   bands (ev):

    -4.7614  -1.5464   1.0946   2.9437

          k = 0.4460 0.0637 0.5735 (  4623 PWs)   bands (ev):

    -5.3429  -0.8147   1.6164   3.4879

          k = 0.3186 0.1912 0.4460 (  4630 PWs)   bands (ev):

    -5.8835  -0.1549   3.0416   3.8932

          k =-0.0637 0.8283 0.0637 (  4620 PWs)   bands (ev):

    -4.8201  -1.4664   2.2131   2.3882

          k = 0.8283-0.0637 0.9558 (  4620 PWs)   bands (ev):

    -4.3931  -1.9964   1.7410   2.1889

          k = 0.7009 0.0637 0.8283 (  4608 PWs)   bands (ev):

    -4.4418  -1.8862   1.1262   2.4861

          k = 0.5735 0.1912 0.7009 (  4604 PWs)   bands (ev):

    -4.8510  -1.6188   1.5088   3.0484

          k = 0.4460 0.3186 0.5735 (  4607 PWs)   bands (ev):

    -5.2587  -1.4628   2.8186   3.5753

          k =-0.0637-0.9558 0.0637 (  4624 PWs)   bands (ev):

    -4.4087  -2.0270   2.0788   2.2657

          k =-0.1912-0.8283-0.0637 (  4615 PWs)   bands (ev):

    -4.7743  -1.5019   1.8807   2.3452

          k =-0.3186-0.7009-0.1912 (  4616 PWs)   bands (ev):

    -5.1074  -1.2138   1.8705   2.9078

          k =-0.0637-0.7009 0.0637 (  4629 PWs)   bands (ev):

    -5.3440  -0.6489   2.4796   2.6301

          k =-0.1912-0.5735-0.0637 (  4630 PWs)   bands (ev):

    -5.7515   0.0168   2.5354   3.1298

          k =-0.0637-0.4460 0.0637 (  4614 PWs)   bands (ev):

    -6.2584   1.2506   3.3824   3.4375

          k =-0.1912 0.1912 0.1912 (  4645 PWs)   bands (ev):

    -6.5861   1.8731   4.4546   4.4546

          k =-0.3186 0.3186 0.0637 (  4630 PWs)   bands (ev):

    -6.2699   0.9851   3.0207   4.4399

          k =-0.4460 0.4460-0.0637 (  4630 PWs)   bands (ev):

    -5.6891  -0.2823   2.0099   3.9480

          k = 0.4460-0.4460 0.8283 (  4611 PWs)   bands (ev):

    -5.0736  -1.4345   1.7866   3.4358

          k = 0.3186-0.3186 0.7009 (  4618 PWs)   bands (ev):

    -5.0606  -1.4613   2.0386   3.1392

          k = 0.1912-0.1912 0.5735 (  4629 PWs)   bands (ev):

    -5.6710  -0.2923   2.6323   3.1381

          k =-0.1912 0.4460 0.1912 (  4632 PWs)   bands (ev):

    -6.0661   0.4032   3.3717   3.5488

          k =-0.3186 0.5735 0.0637 (  4624 PWs)   bands (ev):

    -5.5818  -0.3831   2.0598   3.3467

          k = 0.5735-0.3186 0.9558 (  4607 PWs)   bands (ev):

    -4.9595  -1.2882   1.3521   2.8426

          k = 0.4460-0.1912 0.8283 (  4606 PWs)   bands (ev):

    -4.6832  -1.6812   1.3224   2.5647

          k = 0.3186-0.0637 0.7009 (  4615 PWs)   bands (ev):

    -5.1389  -1.0149   1.7309   2.7225

          k =-0.1912 0.7009 0.1912 (  4614 PWs)   bands (ev):

    -5.2140  -0.9541   2.0149   2.8110

          k = 0.7009-0.1912 1.0832 (  4615 PWs)   bands (ev):

    -4.6931  -1.5747   1.5232   2.2439

          k = 0.5735-0.0637 0.9558 (  4617 PWs)   bands (ev):

    -4.3545  -1.9177   1.2546   1.8264

          k = 0.4460 0.0637 0.8283 (  4610 PWs)   bands (ev):

    -4.5960  -1.6770   1.2366   2.2372

          k =-0.1912-1.0832 0.1912 (  4617 PWs)   bands (ev):

    -4.4067  -1.9582   1.3586   2.4705

          k =-0.3186-0.9558 0.0637 (  4608 PWs)   bands (ev):

    -4.3707  -1.9512   1.4311   1.9799

          k =-0.1912-0.8283 0.1912 (  4613 PWs)   bands (ev):

    -4.7487  -1.5503   1.5805   2.5854

          k =-0.3186 0.3186 0.3186 (  4615 PWs)   bands (ev):

    -5.9886  -0.1337   4.0201   4.0201

          k =-0.4460 0.4460 0.1912 (  4617 PWs)   bands (ev):

    -5.6240  -0.6810   2.5813   3.9243

          k = 0.4460-0.4460 1.0832 (  4611 PWs)   bands (ev):

    -5.0576  -1.2143   1.2801   3.3802

          k = 0.3186-0.3186 0.9558 (  4602 PWs)   bands (ev):

    -4.5784  -1.7512   1.0094   2.8585

          k =-0.3186 0.5735 0.3186 (  4610 PWs)   bands (ev):

    -5.4020  -1.1323   2.8368   3.3983

          k = 0.5735-0.3186 1.2106 (  4613 PWs)   bands (ev):

    -4.9761  -1.4600   1.6944   2.9866

          k = 0.4460-0.1912 1.0832 (  4607 PWs)   bands (ev):

    -4.5063  -1.7880   1.0888   2.3484

          k =-0.3186-1.2106 0.3186 (  4610 PWs)   bands (ev):

    -4.7599  -1.6635   1.3872   2.9543

          k =-0.4460 0.4460 0.4460 (  4612 PWs)   bands (ev):

    -5.3594  -1.4925   3.7780   3.7780

          k = 0.4460-0.4460 1.3381 (  4605 PWs)   bands (ev):

    -5.1227  -1.6345   2.5499   3.5359

     highest occupied level (ev):     4.8894

!    total energy              =     -15.77444970 Ry
     estimated scf accuracy    <          3.9E-12 Ry

     The total energy is the sum of the following terms:
[...]
        k(   40) = (  -0.3185905   0.5734630   0.0637181), wk =   0.0468750
        k(   41) = (   0.5734630  -0.3185905   0.9557716), wk =   0.0468750
        k(   42) = (   0.4460267  -0.1911543   0.8283354), wk =   0.0468750
        k(   43) = (   0.3185905  -0.0637181   0.7008992), wk =   0.0468750
        k(   44) = (  -0.1911543   0.7008992   0.1911543), wk =   0.0234375
        k(   45) = (   0.7008992  -0.1911543   1.0832078), wk =   0.0468750
        k(   46) = (   0.5734630  -0.0637181   0.9557716), wk =   0.0468750
        k(   47) = (   0.4460267   0.0637181   0.8283354), wk =   0.0468750
        k(   48) = (  -0.1911543  -1.0832078   0.1911543), wk =   0.0234375
        k(   49) = (  -0.3185905  -0.9557716   0.0637181), wk =   0.0468750
        k(   50) = (  -0.1911543  -0.8283354   0.1911543), wk =   0.0234375
        k(   51) = (  -0.3185905   0.3185905   0.3185905), wk =   0.0078125
        k(   52) = (  -0.4460267   0.4460267   0.1911543), wk =   0.0234375
        k(   53) = (   0.4460267  -0.4460267   1.0832078), wk =   0.0234375
        k(   54) = (   0.3185905  -0.3185905   0.9557716), wk =   0.0234375
        k(   55) = (  -0.3185905   0.5734630   0.3185905), wk =   0.0234375
        k(   56) = (   0.5734630  -0.3185905   1.2106440), wk =   0.0468750
        k(   57) = (   0.4460267  -0.1911543   1.0832078), wk =   0.0468750
        k(   58) = (  -0.3185905  -1.2106440   0.3185905), wk =   0.0234375
        k(   59) = (  -0.4460267   0.4460267   0.4460267), wk =   0.0078125
        k(   60) = (   0.4460267  -0.4460267   1.3380802), wk =   0.0234375

     Dense  grid:    34717 G-vectors     FFT dimensions: (  45,  45,  45)

     Estimated max dynamical RAM per process >      14.20 MB

     Estimated total dynamical RAM >     227.13 MB

     Initial potential from superposition of free atoms

     starting charge       6.0000, renormalised to       8.0000
     Starting wfcs are   18 randomized atomic wfcs

     total cpu time spent up to now is       50.7 secs

     Self-consistent Calculation

     iteration #  1     ecut=    80.00 Ry     beta= 0.15
     Davidson diagonalization with overlap
     ethr =  1.00E-06,  avg # of iterations =  7.8

     total cpu time spent up to now is       51.6 secs

     total energy              =     -15.79385287 Ry
     estimated scf accuracy    <       0.09851524 Ry

     iteration #  2     ecut=    80.00 Ry     beta= 0.15
     Davidson diagonalization with overlap
     ethr =  1.23E-03,  avg # of iterations =  1.0

     total cpu time spent up to now is       51.9 secs

     total energy              =     -15.76671607 Ry
     estimated scf accuracy    <       0.06387018 Ry

     iteration #  3     ecut=    80.00 Ry     beta= 0.15
     Davidson diagonalization with overlap
     ethr =  7.98E-04,  avg # of iterations =  2.0

     total cpu time spent up to now is       52.4 secs

     total energy              =     -15.77488977 Ry
     estimated scf accuracy    <       0.00309629 Ry

     iteration #  4     ecut=    80.00 Ry     beta= 0.15
     Davidson diagonalization with overlap
     ethr =  3.87E-05,  avg # of iterations =  1.6

     total cpu time spent up to now is       52.8 secs

     total energy              =     -15.77426341 Ry
     estimated scf accuracy    <       0.00256697 Ry

     iteration #  5     ecut=    80.00 Ry     beta= 0.15
     Davidson diagonalization with overlap
     ethr =  3.21E-05,  avg # of iterations =  2.1

     total cpu time spent up to now is       53.2 secs

     total energy              =     -15.77473317 Ry
     estimated scf accuracy    <       0.00207912 Ry

     iteration #  6     ecut=    80.00 Ry     beta= 0.15
     Davidson diagonalization with overlap
     ethr =  2.60E-05,  avg # of iterations =  1.0

     total cpu time spent up to now is       53.5 secs

     total energy              =     -15.77452038 Ry
     estimated scf accuracy    <       0.00090133 Ry

     iteration #  7     ecut=    80.00 Ry     beta= 0.15
     Davidson diagonalization with overlap
     ethr =  1.13E-05,  avg # of iterations =  1.0

     total cpu time spent up to now is       53.9 secs

     total energy              =     -15.77439906 Ry
     estimated scf accuracy    <       0.00035970 Ry

     iteration #  8     ecut=    80.00 Ry     beta= 0.15
     Davidson diagonalization with overlap
     ethr =  4.50E-06,  avg # of iterations =  2.0

     total cpu time spent up to now is       54.3 secs

     total energy              =     -15.77444885 Ry
     estimated scf accuracy    <       0.00003075 Ry

     iteration #  9     ecut=    80.00 Ry     beta= 0.15
     Davidson diagonalization with overlap
     ethr =  3.84E-07,  avg # of iterations =  4.3

     total cpu time spent up to now is       55.0 secs

     total energy              =     -15.77456635 Ry
     estimated scf accuracy    <       0.00025571 Ry

     iteration # 10     ecut=    80.00 Ry     beta= 0.15
     Davidson diagonalization with overlap
     ethr =  3.84E-07,  avg # of iterations =  1.0

     total cpu time spent up to now is       55.3 secs

     total energy              =     -15.77439399 Ry
     estimated scf accuracy    <       0.00030318 Ry

     iteration # 11     ecut=    80.00 Ry     beta= 0.15
     Davidson diagonalization with overlap
     ethr =  3.84E-07,  avg # of iterations =  3.7

     total cpu time spent up to now is       55.9 secs

     total energy              =     -15.77445011 Ry
     estimated scf accuracy    <       0.00000036 Ry

     iteration # 12     ecut=    80.00 Ry     beta= 0.15
     Davidson diagonalization with overlap
     ethr =  4.49E-09,  avg # of iterations =  6.4

     total cpu time spent up to now is       56.8 secs

     total energy              =     -15.77444906 Ry
     estimated scf accuracy    <       0.00000661 Ry

     iteration # 13     ecut=    80.00 Ry     beta= 0.15
     Davidson diagonalization with overlap
     ethr =  4.49E-09,  avg # of iterations =  3.7

     total cpu time spent up to now is       57.4 secs

     total energy              =     -15.77444953 Ry
     estimated scf accuracy    <       0.00000038 Ry

     iteration # 14     ecut=    80.00 Ry     beta= 0.15
     Davidson diagonalization with overlap
     ethr =  4.49E-09,  avg # of iterations =  3.4

     total cpu time spent up to now is       58.0 secs

     total energy              =     -15.77444969 Ry
     estimated scf accuracy    <       0.00000061 Ry

     iteration # 15     ecut=    80.00 Ry     beta= 0.15
     Davidson diagonalization with overlap
     ethr =  4.49E-09,  avg # of iterations =  1.0

     total cpu time spent up to now is       58.4 secs

     total energy              =     -15.77444967 Ry
     estimated scf accuracy    <       0.00000018 Ry

     iteration # 16     ecut=    80.00 Ry     beta= 0.15
     Davidson diagonalization with overlap
     ethr =  2.24E-09,  avg # of iterations =  1.1

     total cpu time spent up to now is       58.8 secs

     total energy              =     -15.77444963 Ry
     estimated scf accuracy    <       0.00000007 Ry

     iteration # 17     ecut=    80.00 Ry     beta= 0.15
     Davidson diagonalization with overlap
     ethr =  9.28E-10,  avg # of iterations =  3.2

     total cpu time spent up to now is       59.4 secs

     total energy              =     -15.77444968 Ry
     estimated scf accuracy    <       0.00000005 Ry

     iteration # 18     ecut=    80.00 Ry     beta= 0.15
     Davidson diagonalization with overlap
     ethr =  6.42E-10,  avg # of iterations =  1.0

     total cpu time spent up to now is       59.8 secs

     total energy              =     -15.77444967 Ry
     estimated scf accuracy    <       0.00000003 Ry

     iteration # 19     ecut=    80.00 Ry     beta= 0.15
     Davidson diagonalization with overlap
     ethr =  3.79E-10,  avg # of iterations =  1.4

     total cpu time spent up to now is       60.2 secs

     total energy              =     -15.77444967 Ry
     estimated scf accuracy    <          4.4E-09 Ry

     iteration # 20     ecut=    80.00 Ry     beta= 0.15
     Davidson diagonalization with overlap
     ethr =  5.46E-11,  avg # of iterations =  2.5

     total cpu time spent up to now is       60.7 secs

     total energy              =     -15.77444967 Ry
     estimated scf accuracy    <          3.6E-11 Ry

     iteration # 21     ecut=    80.00 Ry     beta= 0.15
     Davidson diagonalization with overlap
     ethr =  4.54E-13,  avg # of iterations =  4.8

     total cpu time spent up to now is       61.3 secs

     total energy              =     -15.77444967 Ry
     estimated scf accuracy    <          1.3E-10 Ry

     iteration # 22     ecut=    80.00 Ry     beta= 0.15
     Davidson diagonalization with overlap
     ethr =  4.54E-13,  avg # of iterations =  2.1

     total cpu time spent up to now is       61.8 secs

     total energy              =     -15.77444967 Ry
     estimated scf accuracy    <          3.2E-10 Ry

     iteration # 23     ecut=    80.00 Ry     beta= 0.15
     Davidson diagonalization with overlap
     ethr =  4.54E-13,  avg # of iterations =  1.0

     total cpu time spent up to now is       62.2 secs

     total energy              =     -15.77444967 Ry
     estimated scf accuracy    <          2.6E-10 Ry

     iteration # 24     ecut=    80.00 Ry     beta= 0.15
     Davidson diagonalization with overlap
     ethr =  4.54E-13,  avg # of iterations =  2.8

     total cpu time spent up to now is       62.7 secs

     total energy              =     -15.77444967 Ry
     estimated scf accuracy    <          2.6E-11 Ry

     iteration # 25     ecut=    80.00 Ry     beta= 0.15
     Davidson diagonalization with overlap
     ethr =  3.20E-13,  avg # of iterations =  1.0

     total cpu time spent up to now is       63.0 secs

     total energy              =     -15.77444967 Ry
     estimated scf accuracy    <          4.9E-11 Ry

     iteration # 26     ecut=    80.00 Ry     beta= 0.15
     Davidson diagonalization with overlap
     ethr =  3.20E-13,  avg # of iterations =  3.2

     total cpu time spent up to now is       63.5 secs

     total energy              =     -15.77444967 Ry
     estimated scf accuracy    <          1.3E-11 Ry

     iteration # 27     ecut=    80.00 Ry     beta= 0.15
     Davidson diagonalization with overlap
     ethr =  1.62E-13,  avg # of iterations =  3.2

     total cpu time spent up to now is       64.1 secs

     total energy              =     -15.77444967 Ry
     estimated scf accuracy    <          1.2E-10 Ry

     iteration # 28     ecut=    80.00 Ry     beta= 0.15
     Davidson diagonalization with overlap
     ethr =  1.62E-13,  avg # of iterations =  4.1

     total cpu time spent up to now is       64.7 secs

     End of self-consistent calculation

          k =-0.0637 0.0637 0.0637 (  4357 PWs)   bands (ev):

    -6.9126   4.1239   4.8896   4.8896

          k =-0.1912 0.1912-0.0637 (  4384 PWs)   bands (ev):

    -6.6928   2.5122   4.1194   4.7556

          k =-0.3186 0.3186-0.1912 (  4358 PWs)   bands (ev):

    -6.1744   0.4721   3.5864   4.2858

          k =-0.4460 0.4460-0.3186 (  4359 PWs)   bands (ev):

    -5.5056  -1.1398   3.3286   3.8696

          k = 0.4460-0.4460 0.5735 (  4374 PWs)   bands (ev):

    -5.2207  -1.6664   3.3504   3.6592

          k = 0.3186-0.3186 0.4460 (  4361 PWs)   bands (ev):

    -5.7238  -0.6832   3.6312   3.7057

          k = 0.1912-0.1912 0.3186 (  4370 PWs)   bands (ev):

    -6.3750   1.1304   4.0100   4.1096

          k = 0.0637-0.0637 0.1912 (  4379 PWs)   bands (ev):

    -6.8018   3.2321   4.4969   4.5839

          k =-0.0637 0.3186 0.0637 (  4381 PWs)   bands (ev):

    -6.5822   2.2453   3.9622   3.9798

          k =-0.1912 0.4460-0.0637 (  4369 PWs)   bands (ev):

    -6.1599   0.8442   3.0157   3.7240

          k =-0.3186 0.5735-0.1912 (  4359 PWs)   bands (ev):

    -5.5178  -0.7189   2.4547   3.3454

          k = 0.5735-0.3186 0.7009 (  4360 PWs)   bands (ev):

    -5.0255  -1.6201   2.1530   3.2590

          k = 0.4460-0.1912 0.5735 (  4356 PWs)   bands (ev):

    -5.3090  -1.1233   2.1235   3.5208

          k = 0.3186-0.0637 0.4460 (  4360 PWs)   bands (ev):

    -5.9671   0.2874   2.4989   4.0003

          k = 0.1912 0.0637 0.3186 (  4374 PWs)   bands (ev):

    -6.4771   1.6818   3.5639   4.3551

          k =-0.0637 0.5735 0.0637 (  4360 PWs)   bands (ev):

    -5.8392   0.2761   2.8734   2.9846

          k =-0.1912 0.7009-0.0637 (  4359 PWs)   bands (ev):

    -5.2728  -0.7824   2.1509   2.6605

          k = 0.7009-0.1912 0.8283 (  4358 PWs)   bands (ev):

    -4.7109  -1.6246   1.3932   2.6246

          k = 0.5735-0.0637 0.7009 (  4350 PWs)   bands (ev):

    -4.7613  -1.5463   1.0947   2.9439

          k = 0.4460 0.0637 0.5735 (  4360 PWs)   bands (ev):

    -5.3428  -0.8146   1.6165   3.4881

          k = 0.3186 0.1912 0.4460 (  4354 PWs)   bands (ev):

    -5.8834  -0.1547   3.0418   3.8933

          k =-0.0637 0.8283 0.0637 (  4341 PWs)   bands (ev):

    -4.8199  -1.4663   2.2132   2.3883

          k = 0.8283-0.0637 0.9558 (  4338 PWs)   bands (ev):

    -4.3930  -1.9963   1.7412   2.1890

          k = 0.7009 0.0637 0.8283 (  4349 PWs)   bands (ev):

    -4.4417  -1.8860   1.1263   2.4863

          k = 0.5735 0.1912 0.7009 (  4362 PWs)   bands (ev):

    -4.8509  -1.6187   1.5089   3.0486

          k = 0.4460 0.3186 0.5735 (  4365 PWs)   bands (ev):

    -5.2586  -1.4627   2.8187   3.5755

          k =-0.0637-0.9558 0.0637 (  4344 PWs)   bands (ev):

    -4.4086  -2.0269   2.0789   2.2658

          k =-0.1912-0.8283-0.0637 (  4349 PWs)   bands (ev):

    -4.7741  -1.5018   1.8808   2.3453

          k =-0.3186-0.7009-0.1912 (  4362 PWs)   bands (ev):

    -5.1073  -1.2137   1.8706   2.9079

          k =-0.0637-0.7009 0.0637 (  4357 PWs)   bands (ev):

    -5.3439  -0.6487   2.4798   2.6303

          k =-0.1912-0.5735-0.0637 (  4359 PWs)   bands (ev):

    -5.7514   0.0169   2.5355   3.1299

          k =-0.0637-0.4460 0.0637 (  4365 PWs)   bands (ev):

    -6.2583   1.2508   3.3826   3.4376

          k =-0.1912 0.1912 0.1912 (  4372 PWs)   bands (ev):

    -6.5860   1.8733   4.4548   4.4548

          k =-0.3186 0.3186 0.0637 (  4372 PWs)   bands (ev):

    -6.2698   0.9852   3.0209   4.4401

          k =-0.4460 0.4460-0.0637 (  4356 PWs)   bands (ev):

    -5.6890  -0.2822   2.0101   3.9482

          k = 0.4460-0.4460 0.8283 (  4372 PWs)   bands (ev):

    -5.0734  -1.4343   1.7867   3.4360

          k = 0.3186-0.3186 0.7009 (  4363 PWs)   bands (ev):

    -5.0604  -1.4612   2.0388   3.1394

          k = 0.1912-0.1912 0.5735 (  4359 PWs)   bands (ev):

    -5.6709  -0.2921   2.6325   3.1382

          k =-0.1912 0.4460 0.1912 (  4365 PWs)   bands (ev):

    -6.0660   0.4034   3.3719   3.5490

          k =-0.3186 0.5735 0.0637 (  4359 PWs)   bands (ev):

    -5.5817  -0.3829   2.0600   3.3469

          k = 0.5735-0.3186 0.9558 (  4360 PWs)   bands (ev):

    -4.9594  -1.2881   1.3522   2.8428

          k = 0.4460-0.1912 0.8283 (  4355 PWs)   bands (ev):

    -4.6831  -1.6811   1.3225   2.5648

          k = 0.3186-0.0637 0.7009 (  4362 PWs)   bands (ev):

    -5.1388  -1.0147   1.7310   2.7226

          k =-0.1912 0.7009 0.1912 (  4355 PWs)   bands (ev):

    -5.2139  -0.9539   2.0150   2.8112

          k = 0.7009-0.1912 1.0832 (  4344 PWs)   bands (ev):

    -4.6930  -1.5746   1.5233   2.2440

          k = 0.5735-0.0637 0.9558 (  4353 PWs)   bands (ev):

    -4.3544  -1.9176   1.2547   1.8265

          k = 0.4460 0.0637 0.8283 (  4348 PWs)   bands (ev):

    -4.5958  -1.6769   1.2367   2.2374

          k =-0.1912-1.0832 0.1912 (  4351 PWs)   bands (ev):

    -4.4065  -1.9580   1.3587   2.4706

          k =-0.3186-0.9558 0.0637 (  4336 PWs)   bands (ev):

    -4.3706  -1.9511   1.4312   1.9800

          k =-0.1912-0.8283 0.1912 (  4353 PWs)   bands (ev):

    -4.7485  -1.5502   1.5806   2.5855

          k =-0.3186 0.3186 0.3186 (  4350 PWs)   bands (ev):

    -5.9885  -0.1336   4.0203   4.0203

          k =-0.4460 0.4460 0.1912 (  4355 PWs)   bands (ev):

    -5.6239  -0.6808   2.5815   3.9245

          k = 0.4460-0.4460 1.0832 (  4355 PWs)   bands (ev):

    -5.0574  -1.2141   1.2803   3.3803

          k = 0.3186-0.3186 0.9558 (  4357 PWs)   bands (ev):

    -4.5783  -1.7511   1.0095   2.8586

          k =-0.3186 0.5735 0.3186 (  4364 PWs)   bands (ev):

    -5.4019  -1.1322   2.8369   3.3985

          k = 0.5735-0.3186 1.2106 (  4362 PWs)   bands (ev):

    -4.9760  -1.4598   1.6945   2.9868

          k = 0.4460-0.1912 1.0832 (  4352 PWs)   bands (ev):

    -4.5061  -1.7879   1.0889   2.3486

          k =-0.3186-1.2106 0.3186 (  4358 PWs)   bands (ev):

    -4.7598  -1.6634   1.3873   2.9545

          k =-0.4460 0.4460 0.4460 (  4368 PWs)   bands (ev):

    -5.3592  -1.4924   3.7782   3.7782

          k = 0.4460-0.4460 1.3381 (  4359 PWs)   bands (ev):

    -5.1226  -1.6344   2.5500   3.5361

     highest occupied level (ev):     4.8896

!    total energy              =     -15.77444967 Ry
     estimated scf accuracy    <          8.2E-12 Ry

     The total energy is the sum of the following terms:
     one-electron contribution =       3.50936352 Ry
     hartree contribution      =       1.08894496 Ry
     xc contribution           =      -4.44774134 Ry
     ewald contribution        =     -15.92501681 Ry

     convergence has been achieved in  28 iterations


     Computing stress (Cartesian axis) and pressure

          total   stress  (Ry/bohr**3)                   (kbar)     P=       -0.03
  -0.00000020   0.00000000   0.00000000           -0.03        0.00        0.00
   0.00000000  -0.00000020   0.00000000            0.00       -0.03        0.00
   0.00000000   0.00000000  -0.00000020            0.00        0.00       -0.03


     Writing all to output data dir ./work/GaSb.save/
 
     init_run     :      1.49s CPU      1.59s WALL (       2 calls)
     electrons    :     54.65s CPU     58.38s WALL (       7 calls)
     update_pot   :      2.34s CPU      2.38s WALL (       5 calls)
     stress       :      1.92s CPU      1.94s WALL (       7 calls)

     Called by init_run:
     wfcinit      :      0.87s CPU      0.92s WALL (       2 calls)
     potinit      :      0.16s CPU      0.16s WALL (       2 calls)
     hinit0       :      0.41s CPU      0.45s WALL (       2 calls)

     Called by electrons:
     c_bands      :     47.71s CPU     50.75s WALL (     123 calls)
     sum_band     :      6.57s CPU      7.03s WALL (     123 calls)
     v_of_rho     :      0.11s CPU      0.12s WALL (     128 calls)
     mix_rho      :      0.20s CPU      0.21s WALL (     123 calls)

     Called by c_bands:
     init_us_2    :      2.56s CPU      2.73s WALL (   15300 calls)
     init_us_2:cp :      2.51s CPU      2.68s WALL (   15300 calls)
     cegterg      :     38.43s CPU     40.95s WALL (    7380 calls)

     Called by *egterg:
     cdiaghg      :      1.91s CPU      2.05s WALL (   25327 calls)
     h_psi        :     33.76s CPU     35.98s WALL (   25867 calls)
     g_psi        :      0.15s CPU      0.16s WALL (   18367 calls)

     Called by h_psi:
     h_psi:calbec :      1.92s CPU      2.05s WALL (   25867 calls)
     vloc_psi     :     30.50s CPU     32.49s WALL (   25867 calls)
     add_vuspsi   :      0.99s CPU      1.07s WALL (   25867 calls)

     General routines
     calbec       :      1.94s CPU      2.08s WALL (   26287 calls)
     fft          :      0.13s CPU      0.18s WALL (     405 calls)
     ffts         :      0.03s CPU      0.03s WALL (     123 calls)
     fftw         :     32.60s CPU     34.76s WALL (  215190 calls)
 
     Parallel routines
 
     PWSCF        :   1m 0.67s CPU   1m 5.16s WALL

 
   This run was terminated on:  13:49: 2  23Feb2023            

=------------------------------------------------------------------------------=
   JOB DONE.
=------------------------------------------------------------------------------=
