
     Program PWSCF v.7.1 starts on  1Feb2023 at 10:21:22 

     This program is part of the open-source Quantum ESPRESSO suite
     for quantum simulation of materials; please cite
         "P. Giannozzi et al., J. Phys.:Condens. Matter 21 395502 (2009);
         "P. Giannozzi et al., J. Phys.:Condens. Matter 29 465901 (2017);
         "P. Giannozzi et al., J. Chem. Phys. 152 154105 (2020);
          URL http://www.quantum-espresso.org", 
     in publications or presentations arising from this work. More details at
     http://www.quantum-espresso.org/quote

     Parallel version (MPI), running on    20 processors

     MPI processes distributed on     1 nodes
     118992 MiB available memory on the printing compute node when the environment starts
 
     Waiting for input...
     Reading input from standard input

     Current dimensions of program PWSCF are:
     Max number of different atomic species (ntypx) = 10
     Max number of k-points (npk) =  40000
     Max angular momentum in pseudopotentials (lmaxx) =  4

     Atomic positions and unit cell read from directory:
     ./work/GaAs.save/
     Atomic positions from file used, from input discarded
 
 
     R & G space division:  proc/nbgrp/npool/nimage =      20
     Subspace diagonalization in iterative solution of the eigenvalue problem:
     a serial algorithm will be used

 
     Parallelization info
     --------------------
     sticks:   dense  smooth     PW     G-vecs:    dense   smooth      PW
     Min          60      60     17                 1378     1378     213
     Max          61      61     18                 1381     1381     216
     Sum        1201    1201    349                27581    27581    4279
 
     Using Slab Decomposition
 


     bravais-lattice index     =            2
     lattice parameter (alat)  =      10.4474  a.u.
     unit-cell volume          =     285.0788 (a.u.)^3
     number of atoms/cell      =            2
     number of atomic types    =            2
     number of electrons       =         8.00
     number of Kohn-Sham states=           32
     kinetic-energy cutoff     =      80.0000  Ry
     charge density cutoff     =     320.0000  Ry
     Exchange-correlation= SLA-PZ-NOGX-NOGC
                           (   1   1   0   0   0   0   0)

     celldm(1)=  10.447402  celldm(2)=   0.000000  celldm(3)=   0.000000
     celldm(4)=   0.000000  celldm(5)=   0.000000  celldm(6)=   0.000000

     crystal axes: (cart. coord. in units of alat)
               a(1) = (  -0.500000   0.000000   0.500000 )  
               a(2) = (   0.000000   0.500000   0.500000 )  
               a(3) = (  -0.500000   0.500000   0.000000 )  

     reciprocal axes: (cart. coord. in units 2 pi/alat)
               b(1) = ( -1.000000 -1.000000  1.000000 )  
               b(2) = (  1.000000  1.000000  1.000000 )  
               b(3) = ( -1.000000  1.000000 -1.000000 )  


     PseudoPot. # 1 for Ga read from file:
     ../../pseudo/Ga.pz-hgh.upf
     MD5 check sum: 9a76aebca20297769771d7f9bb2cf22c
     Pseudo is Norm-conserving, Zval =  3.0
     Generated in analytical, separable form
     Using radial grid of 1205 points,  6 beta functions with: 
                l(1) =   0
                l(2) =   0
                l(3) =   0
                l(4) =   1
                l(5) =   1
                l(6) =   2

     PseudoPot. # 2 for As read from file:
     ../../pseudo/As.pz-hgh.upf
     MD5 check sum: 8bce9ee3be4f31c0b3268c76e624ca74
     Pseudo is Norm-conserving, Zval =  5.0
     Generated in analytical, separable form
     Using radial grid of 1209 points,  6 beta functions with: 
                l(1) =   0
                l(2) =   0
                l(3) =   0
                l(4) =   1
                l(5) =   1
                l(6) =   2

     atomic species   valence    mass     pseudopotential
        Ga             3.00    68.92600     Ga( 1.00)
        As             5.00    74.92200     As( 1.00)

     24 Sym. Ops. (no inversion) found


                                    s                        frac. trans.

      isym =  1     identity                                     

 cryst.   s( 1) = (     1          0          0      )
                  (     0          1          0      )
                  (     0          0          1      )

 cart.    s( 1) = (  1.0000000  0.0000000  0.0000000 )
                  (  0.0000000  1.0000000  0.0000000 )
                  (  0.0000000  0.0000000  1.0000000 )


      isym =  2     180 deg rotation - cart. axis [0,0,1]        

 cryst.   s( 2) = (     0          1         -1      )
                  (     1          0         -1      )
                  (     0          0         -1      )

 cart.    s( 2) = ( -1.0000000  0.0000000  0.0000000 )
                  (  0.0000000 -1.0000000  0.0000000 )
                  (  0.0000000  0.0000000  1.0000000 )


      isym =  3     180 deg rotation - cart. axis [0,1,0]        

 cryst.   s( 3) = (    -1          0          0      )
                  (    -1          0          1      )
                  (    -1          1          0      )

 cart.    s( 3) = ( -1.0000000  0.0000000  0.0000000 )
                  (  0.0000000  1.0000000  0.0000000 )
                  (  0.0000000  0.0000000 -1.0000000 )


      isym =  4     180 deg rotation - cart. axis [1,0,0]        

 cryst.   s( 4) = (     0         -1          1      )
                  (     0         -1          0      )
                  (     1         -1          0      )

 cart.    s( 4) = (  1.0000000  0.0000000  0.0000000 )
                  (  0.0000000 -1.0000000  0.0000000 )
                  (  0.0000000  0.0000000 -1.0000000 )


      isym =  5     120 deg rotation - cart. axis [-1,-1,-1]     

 cryst.   s( 5) = (    -1          0          1      )
                  (    -1          1          0      )
                  (    -1          0          0      )

 cart.    s( 5) = (  0.0000000  1.0000000  0.0000000 )
                  (  0.0000000  0.0000000  1.0000000 )
                  (  1.0000000  0.0000000  0.0000000 )


      isym =  6     120 deg rotation - cart. axis [-1,1,1]       

 cryst.   s( 6) = (     0          1          0      )
                  (     0          0          1      )
                  (     1          0          0      )

 cart.    s( 6) = (  0.0000000 -1.0000000  0.0000000 )
                  (  0.0000000  0.0000000  1.0000000 )
                  ( -1.0000000  0.0000000  0.0000000 )


      isym =  7     120 deg rotation - cart. axis [1,1,-1]       

 cryst.   s( 7) = (     1          0         -1      )
                  (     0          0         -1      )
                  (     0          1         -1      )

 cart.    s( 7) = (  0.0000000  1.0000000  0.0000000 )
                  (  0.0000000  0.0000000 -1.0000000 )
                  ( -1.0000000  0.0000000  0.0000000 )


      isym =  8     120 deg rotation - cart. axis [1,-1,1]       

 cryst.   s( 8) = (     0         -1          0      )
                  (     1         -1          0      )
                  (     0         -1          1      )

 cart.    s( 8) = (  0.0000000 -1.0000000  0.0000000 )
                  (  0.0000000  0.0000000 -1.0000000 )
                  (  1.0000000  0.0000000  0.0000000 )


      isym =  9     120 deg rotation - cart. axis [1,1,1]        

 cryst.   s( 9) = (     0          0         -1      )
                  (     0          1         -1      )
                  (     1          0         -1      )

 cart.    s( 9) = (  0.0000000  0.0000000  1.0000000 )
                  (  1.0000000  0.0000000  0.0000000 )
                  (  0.0000000  1.0000000  0.0000000 )


      isym = 10     120 deg rotation - cart. axis [-1,1,-1]      

 cryst.   s(10) = (    -1          1          0      )
                  (    -1          0          0      )
                  (    -1          0          1      )

 cart.    s(10) = (  0.0000000  0.0000000  1.0000000 )
                  ( -1.0000000  0.0000000  0.0000000 )
                  (  0.0000000 -1.0000000  0.0000000 )


      isym = 11     120 deg rotation - cart. axis [1,-1,-1]      

 cryst.   s(11) = (     0          0          1      )
                  (     1          0          0      )
                  (     0          1          0      )

 cart.    s(11) = (  0.0000000  0.0000000 -1.0000000 )
                  ( -1.0000000  0.0000000  0.0000000 )
                  (  0.0000000  1.0000000  0.0000000 )


      isym = 12     120 deg rotation - cart. axis [-1,-1,1]      

 cryst.   s(12) = (     1         -1          0      )
                  (     0         -1          1      )
                  (     0         -1          0      )

 cart.    s(12) = (  0.0000000  0.0000000 -1.0000000 )
                  (  1.0000000  0.0000000  0.0000000 )
                  (  0.0000000 -1.0000000  0.0000000 )


      isym = 13     inv. 180 deg rotation - cart. axis [1,1,0]   

 cryst.   s(13) = (     0          1          0      )
                  (     1          0          0      )
                  (     0          0          1      )

 cart.    s(13) = (  0.0000000 -1.0000000  0.0000000 )
                  ( -1.0000000  0.0000000  0.0000000 )
                  (  0.0000000  0.0000000  1.0000000 )


      isym = 14     inv. 180 deg rotation - cart. axis [1,-1,0]  

 cryst.   s(14) = (     1          0         -1      )
                  (     0          1         -1      )
                  (     0          0         -1      )

 cart.    s(14) = (  0.0000000  1.0000000  0.0000000 )
                  (  1.0000000  0.0000000  0.0000000 )
                  (  0.0000000  0.0000000  1.0000000 )


      isym = 15     inv.  90 deg rotation - cart. axis [0,0,-1]  

 cryst.   s(15) = (     0         -1          0      )
                  (     0         -1          1      )
                  (     1         -1          0      )

 cart.    s(15) = (  0.0000000 -1.0000000  0.0000000 )
                  (  1.0000000  0.0000000  0.0000000 )
                  (  0.0000000  0.0000000 -1.0000000 )


      isym = 16     inv.  90 deg rotation - cart. axis [0,0,1]   

 cryst.   s(16) = (    -1          0          1      )
                  (    -1          0          0      )
                  (    -1          1          0      )

 cart.    s(16) = (  0.0000000  1.0000000  0.0000000 )
                  ( -1.0000000  0.0000000  0.0000000 )
                  (  0.0000000  0.0000000 -1.0000000 )


      isym = 17     inv. 180 deg rotation - cart. axis [1,0,1]   

 cryst.   s(17) = (     1          0          0      )
                  (     0          0          1      )
                  (     0          1          0      )

 cart.    s(17) = (  0.0000000  0.0000000 -1.0000000 )
                  (  0.0000000  1.0000000  0.0000000 )
                  ( -1.0000000  0.0000000  0.0000000 )


      isym = 18     inv. 180 deg rotation - cart. axis [-1,0,1]  

 cryst.   s(18) = (    -1          0          0      )
                  (    -1          1          0      )
                  (    -1          0          1      )

 cart.    s(18) = (  0.0000000  0.0000000  1.0000000 )
                  (  0.0000000  1.0000000  0.0000000 )
                  (  1.0000000  0.0000000  0.0000000 )


      isym = 19     inv.  90 deg rotation - cart. axis [0,1,0]   

 cryst.   s(19) = (     0         -1          1      )
                  (     1         -1          0      )
                  (     0         -1          0      )

 cart.    s(19) = (  0.0000000  0.0000000 -1.0000000 )
                  (  0.0000000 -1.0000000  0.0000000 )
                  (  1.0000000  0.0000000  0.0000000 )


      isym = 20     inv.  90 deg rotation - cart. axis [0,-1,0]  

 cryst.   s(20) = (     0          1         -1      )
                  (     0          0         -1      )
                  (     1          0         -1      )

 cart.    s(20) = (  0.0000000  0.0000000  1.0000000 )
                  (  0.0000000 -1.0000000  0.0000000 )
                  ( -1.0000000  0.0000000  0.0000000 )


      isym = 21     inv. 180 deg rotation - cart. axis [0,1,1]   

 cryst.   s(21) = (     1         -1          0      )
                  (     0         -1          0      )
                  (     0         -1          1      )

 cart.    s(21) = (  1.0000000  0.0000000  0.0000000 )
                  (  0.0000000  0.0000000 -1.0000000 )
                  (  0.0000000 -1.0000000  0.0000000 )


      isym = 22     inv. 180 deg rotation - cart. axis [0,1,-1]  

 cryst.   s(22) = (     0          0          1      )
                  (     0          1          0      )
                  (     1          0          0      )

 cart.    s(22) = (  1.0000000  0.0000000  0.0000000 )
                  (  0.0000000  0.0000000  1.0000000 )
                  (  0.0000000  1.0000000  0.0000000 )


      isym = 23     inv.  90 deg rotation - cart. axis [-1,0,0]  

 cryst.   s(23) = (     0          0         -1      )
                  (     1          0         -1      )
                  (     0          1         -1      )

 cart.    s(23) = ( -1.0000000  0.0000000  0.0000000 )
                  (  0.0000000  0.0000000 -1.0000000 )
                  (  0.0000000  1.0000000  0.0000000 )


      isym = 24     inv.  90 deg rotation - cart. axis [1,0,0]   

 cryst.   s(24) = (    -1          1          0      )
                  (    -1          0          1      )
                  (    -1          0          0      )

 cart.    s(24) = ( -1.0000000  0.0000000  0.0000000 )
                  (  0.0000000  0.0000000  1.0000000 )
                  (  0.0000000 -1.0000000  0.0000000 )


     point group T_d (-43m) 
     there are  5 classes
     the character table:

       E     8C3   3C2   6S4   6s_d 
A_1    1.00  1.00  1.00  1.00  1.00
A_2    1.00  1.00  1.00 -1.00 -1.00
E      2.00 -1.00  2.00  0.00  0.00
T_1    3.00  0.00 -1.00  1.00 -1.00
T_2    3.00  0.00 -1.00 -1.00  1.00

     the symmetry operations in each class and the name of the first element:

     E        1
          identity                                               
     8C3      5    7    8    6   12    9   10   11
          120 deg rotation - cart. axis [-1,-1,-1]               
     3C2      2    3    4
          180 deg rotation - cart. axis [0,0,1]                  
     6S4     15   16   20   19   23   24
          inv.  90 deg rotation - cart. axis [0,0,-1]            
     6s_d    13   14   17   18   21   22
          inv. 180 deg rotation - cart. axis [1,1,0]             

   Cartesian axes

     site n.     atom                  positions (alat units)
         1           Ga  tau(   1) = (   0.0000000   0.0000000   0.0000000  )
         2           As  tau(   2) = (  -0.2500000   0.2500000   0.2500000  )

   Crystallographic axes

     site n.     atom                  positions (cryst. coord.)
         1           Ga  tau(   1) = (  0.0000000  0.0000000  0.0000000  )
         2           As  tau(   2) = (  0.2500000  0.2500000  0.2500000  )

     number of k points=   491
                       cart. coord. in units 2pi/alat
        k(    1) = (   0.0000000   0.0000000   0.0000000), wk =   0.0040733
        k(    2) = (  -0.0166667   0.0000000   0.0000000), wk =   0.0040733
        k(    3) = (  -0.0333333   0.0000000   0.0000000), wk =   0.0040733
        k(    4) = (  -0.0500000   0.0000000   0.0000000), wk =   0.0040733
        k(    5) = (  -0.0666667   0.0000000   0.0000000), wk =   0.0040733
        k(    6) = (  -0.0833333   0.0000000   0.0000000), wk =   0.0040733
        k(    7) = (  -0.1000000   0.0000000   0.0000000), wk =   0.0040733
        k(    8) = (  -0.1166667   0.0000000   0.0000000), wk =   0.0040733
        k(    9) = (  -0.1333333   0.0000000   0.0000000), wk =   0.0040733
        k(   10) = (  -0.1500000   0.0000000   0.0000000), wk =   0.0040733
        k(   11) = (  -0.1666667   0.0000000   0.0000000), wk =   0.0040733
        k(   12) = (  -0.1833333   0.0000000   0.0000000), wk =   0.0040733
        k(   13) = (  -0.2000000   0.0000000   0.0000000), wk =   0.0040733
        k(   14) = (  -0.2166667   0.0000000   0.0000000), wk =   0.0040733
        k(   15) = (  -0.2333333   0.0000000   0.0000000), wk =   0.0040733
        k(   16) = (  -0.2500000   0.0000000   0.0000000), wk =   0.0040733
        k(   17) = (  -0.2666667   0.0000000   0.0000000), wk =   0.0040733
        k(   18) = (  -0.2833333   0.0000000   0.0000000), wk =   0.0040733
        k(   19) = (  -0.3000000   0.0000000   0.0000000), wk =   0.0040733
        k(   20) = (  -0.3166667   0.0000000   0.0000000), wk =   0.0040733
        k(   21) = (  -0.3333333   0.0000000   0.0000000), wk =   0.0040733
        k(   22) = (  -0.3500000   0.0000000   0.0000000), wk =   0.0040733
        k(   23) = (  -0.3666667   0.0000000   0.0000000), wk =   0.0040733
        k(   24) = (  -0.3833333   0.0000000   0.0000000), wk =   0.0040733
        k(   25) = (  -0.4000000   0.0000000   0.0000000), wk =   0.0040733
        k(   26) = (  -0.4166667   0.0000000   0.0000000), wk =   0.0040733
        k(   27) = (  -0.4333333   0.0000000   0.0000000), wk =   0.0040733
        k(   28) = (  -0.4500000   0.0000000   0.0000000), wk =   0.0040733
        k(   29) = (  -0.4666667   0.0000000   0.0000000), wk =   0.0040733
        k(   30) = (  -0.4833333   0.0000000   0.0000000), wk =   0.0040733
        k(   31) = (  -0.5000000   0.0000000   0.0000000), wk =   0.0040733
        k(   32) = (  -0.5166667   0.0000000   0.0000000), wk =   0.0040733
        k(   33) = (  -0.5333333   0.0000000   0.0000000), wk =   0.0040733
        k(   34) = (  -0.5500000   0.0000000   0.0000000), wk =   0.0040733
        k(   35) = (  -0.5666667   0.0000000   0.0000000), wk =   0.0040733
        k(   36) = (  -0.5833333   0.0000000   0.0000000), wk =   0.0040733
        k(   37) = (  -0.6000000   0.0000000   0.0000000), wk =   0.0040733
        k(   38) = (  -0.6166667   0.0000000   0.0000000), wk =   0.0040733
        k(   39) = (  -0.6333333   0.0000000   0.0000000), wk =   0.0040733
        k(   40) = (  -0.6500000   0.0000000   0.0000000), wk =   0.0040733
        k(   41) = (  -0.6666667   0.0000000   0.0000000), wk =   0.0040733
        k(   42) = (  -0.6833333   0.0000000   0.0000000), wk =   0.0040733
        k(   43) = (  -0.7000000   0.0000000   0.0000000), wk =   0.0040733
        k(   44) = (  -0.7166667   0.0000000   0.0000000), wk =   0.0040733
        k(   45) = (  -0.7333333   0.0000000   0.0000000), wk =   0.0040733
        k(   46) = (  -0.7500000   0.0000000   0.0000000), wk =   0.0040733
        k(   47) = (  -0.7666667   0.0000000   0.0000000), wk =   0.0040733
        k(   48) = (  -0.7833333   0.0000000   0.0000000), wk =   0.0040733
        k(   49) = (  -0.8000000   0.0000000   0.0000000), wk =   0.0040733
        k(   50) = (  -0.8166667   0.0000000   0.0000000), wk =   0.0040733
        k(   51) = (  -0.8333333   0.0000000   0.0000000), wk =   0.0040733
        k(   52) = (  -0.8500000   0.0000000   0.0000000), wk =   0.0040733
        k(   53) = (  -0.8666667   0.0000000   0.0000000), wk =   0.0040733
        k(   54) = (  -0.8833333   0.0000000   0.0000000), wk =   0.0040733
        k(   55) = (  -0.9000000   0.0000000   0.0000000), wk =   0.0040733
        k(   56) = (  -0.9166667   0.0000000   0.0000000), wk =   0.0040733
        k(   57) = (  -0.9333333   0.0000000   0.0000000), wk =   0.0040733
        k(   58) = (  -0.9500000   0.0000000   0.0000000), wk =   0.0040733
        k(   59) = (  -0.9666667   0.0000000   0.0000000), wk =   0.0040733
        k(   60) = (  -0.9833333   0.0000000   0.0000000), wk =   0.0040733
        k(   61) = (  -1.0000000   0.0000000   0.0000000), wk =   0.0040733
        k(   62) = (  -1.0000000   0.0100000   0.0000000), wk =   0.0040733
        k(   63) = (  -1.0000000   0.0200000   0.0000000), wk =   0.0040733
        k(   64) = (  -1.0000000   0.0300000   0.0000000), wk =   0.0040733
        k(   65) = (  -1.0000000   0.0400000   0.0000000), wk =   0.0040733
        k(   66) = (  -1.0000000   0.0500000   0.0000000), wk =   0.0040733
        k(   67) = (  -1.0000000   0.0600000   0.0000000), wk =   0.0040733
        k(   68) = (  -1.0000000   0.0700000   0.0000000), wk =   0.0040733
        k(   69) = (  -1.0000000   0.0800000   0.0000000), wk =   0.0040733
        k(   70) = (  -1.0000000   0.0900000   0.0000000), wk =   0.0040733
        k(   71) = (  -1.0000000   0.1000000   0.0000000), wk =   0.0040733
        k(   72) = (  -1.0000000   0.1100000   0.0000000), wk =   0.0040733
        k(   73) = (  -1.0000000   0.1200000   0.0000000), wk =   0.0040733
        k(   74) = (  -1.0000000   0.1300000   0.0000000), wk =   0.0040733
        k(   75) = (  -1.0000000   0.1400000   0.0000000), wk =   0.0040733
        k(   76) = (  -1.0000000   0.1500000   0.0000000), wk =   0.0040733
        k(   77) = (  -1.0000000   0.1600000   0.0000000), wk =   0.0040733
        k(   78) = (  -1.0000000   0.1700000   0.0000000), wk =   0.0040733
        k(   79) = (  -1.0000000   0.1800000   0.0000000), wk =   0.0040733
        k(   80) = (  -1.0000000   0.1900000   0.0000000), wk =   0.0040733
        k(   81) = (  -1.0000000   0.2000000   0.0000000), wk =   0.0040733
        k(   82) = (  -1.0000000   0.2100000   0.0000000), wk =   0.0040733
        k(   83) = (  -1.0000000   0.2200000   0.0000000), wk =   0.0040733
        k(   84) = (  -1.0000000   0.2300000   0.0000000), wk =   0.0040733
        k(   85) = (  -1.0000000   0.2400000   0.0000000), wk =   0.0040733
        k(   86) = (  -1.0000000   0.2500000   0.0000000), wk =   0.0040733
        k(   87) = (  -1.0000000   0.2600000   0.0000000), wk =   0.0040733
        k(   88) = (  -1.0000000   0.2700000   0.0000000), wk =   0.0040733
        k(   89) = (  -1.0000000   0.2800000   0.0000000), wk =   0.0040733
        k(   90) = (  -1.0000000   0.2900000   0.0000000), wk =   0.0040733
        k(   91) = (  -1.0000000   0.3000000   0.0000000), wk =   0.0040733
        k(   92) = (  -1.0000000   0.3100000   0.0000000), wk =   0.0040733
        k(   93) = (  -1.0000000   0.3200000   0.0000000), wk =   0.0040733
        k(   94) = (  -1.0000000   0.3300000   0.0000000), wk =   0.0040733
        k(   95) = (  -1.0000000   0.3400000   0.0000000), wk =   0.0040733
        k(   96) = (  -1.0000000   0.3500000   0.0000000), wk =   0.0040733
        k(   97) = (  -1.0000000   0.3600000   0.0000000), wk =   0.0040733
        k(   98) = (  -1.0000000   0.3700000   0.0000000), wk =   0.0040733
        k(   99) = (  -1.0000000   0.3800000   0.0000000), wk =   0.0040733
        k(  100) = (  -1.0000000   0.3900000   0.0000000), wk =   0.0040733
        k(  101) = (  -1.0000000   0.4000000   0.0000000), wk =   0.0040733
        k(  102) = (  -1.0000000   0.4100000   0.0000000), wk =   0.0040733
        k(  103) = (  -1.0000000   0.4200000   0.0000000), wk =   0.0040733
        k(  104) = (  -1.0000000   0.4300000   0.0000000), wk =   0.0040733
        k(  105) = (  -1.0000000   0.4400000   0.0000000), wk =   0.0040733
        k(  106) = (  -1.0000000   0.4500000   0.0000000), wk =   0.0040733
        k(  107) = (  -1.0000000   0.4600000   0.0000000), wk =   0.0040733
        k(  108) = (  -1.0000000   0.4700000   0.0000000), wk =   0.0040733
        k(  109) = (  -1.0000000   0.4800000   0.0000000), wk =   0.0040733
        k(  110) = (  -1.0000000   0.4900000   0.0000000), wk =   0.0040733
        k(  111) = (  -1.0000000   0.5000000   0.0000000), wk =   0.0040733
        k(  112) = (  -0.9950000   0.5050000   0.0000000), wk =   0.0040733
        k(  113) = (  -0.9900000   0.5100000   0.0000000), wk =   0.0040733
        k(  114) = (  -0.9850000   0.5150000   0.0000000), wk =   0.0040733
        k(  115) = (  -0.9800000   0.5200000   0.0000000), wk =   0.0040733
        k(  116) = (  -0.9750000   0.5250000   0.0000000), wk =   0.0040733
        k(  117) = (  -0.9700000   0.5300000   0.0000000), wk =   0.0040733
        k(  118) = (  -0.9650000   0.5350000   0.0000000), wk =   0.0040733
        k(  119) = (  -0.9600000   0.5400000   0.0000000), wk =   0.0040733
        k(  120) = (  -0.9550000   0.5450000   0.0000000), wk =   0.0040733
        k(  121) = (  -0.9500000   0.5500000   0.0000000), wk =   0.0040733
        k(  122) = (  -0.9450000   0.5550000   0.0000000), wk =   0.0040733
        k(  123) = (  -0.9400000   0.5600000   0.0000000), wk =   0.0040733
        k(  124) = (  -0.9350000   0.5650000   0.0000000), wk =   0.0040733
        k(  125) = (  -0.9300000   0.5700000   0.0000000), wk =   0.0040733
        k(  126) = (  -0.9250000   0.5750000   0.0000000), wk =   0.0040733
        k(  127) = (  -0.9200000   0.5800000   0.0000000), wk =   0.0040733
        k(  128) = (  -0.9150000   0.5850000   0.0000000), wk =   0.0040733
        k(  129) = (  -0.9100000   0.5900000   0.0000000), wk =   0.0040733
        k(  130) = (  -0.9050000   0.5950000   0.0000000), wk =   0.0040733
        k(  131) = (  -0.9000000   0.6000000   0.0000000), wk =   0.0040733
        k(  132) = (  -0.8950000   0.6050000   0.0000000), wk =   0.0040733
        k(  133) = (  -0.8900000   0.6100000   0.0000000), wk =   0.0040733
        k(  134) = (  -0.8850000   0.6150000   0.0000000), wk =   0.0040733
        k(  135) = (  -0.8800000   0.6200000   0.0000000), wk =   0.0040733
        k(  136) = (  -0.8750000   0.6250000   0.0000000), wk =   0.0040733
        k(  137) = (  -0.8700000   0.6300000   0.0000000), wk =   0.0040733
        k(  138) = (  -0.8650000   0.6350000   0.0000000), wk =   0.0040733
        k(  139) = (  -0.8600000   0.6400000   0.0000000), wk =   0.0040733
        k(  140) = (  -0.8550000   0.6450000   0.0000000), wk =   0.0040733
        k(  141) = (  -0.8500000   0.6500000   0.0000000), wk =   0.0040733
        k(  142) = (  -0.8450000   0.6550000   0.0000000), wk =   0.0040733
        k(  143) = (  -0.8400000   0.6600000   0.0000000), wk =   0.0040733
        k(  144) = (  -0.8350000   0.6650000   0.0000000), wk =   0.0040733
        k(  145) = (  -0.8300000   0.6700000   0.0000000), wk =   0.0040733
        k(  146) = (  -0.8250000   0.6750000   0.0000000), wk =   0.0040733
        k(  147) = (  -0.8200000   0.6800000   0.0000000), wk =   0.0040733
        k(  148) = (  -0.8150000   0.6850000   0.0000000), wk =   0.0040733
        k(  149) = (  -0.8100000   0.6900000   0.0000000), wk =   0.0040733
        k(  150) = (  -0.8050000   0.6950000   0.0000000), wk =   0.0040733
        k(  151) = (  -0.8000000   0.7000000   0.0000000), wk =   0.0040733
        k(  152) = (  -0.7950000   0.7050000   0.0000000), wk =   0.0040733
        k(  153) = (  -0.7900000   0.7100000   0.0000000), wk =   0.0040733
        k(  154) = (  -0.7850000   0.7150000   0.0000000), wk =   0.0040733
        k(  155) = (  -0.7800000   0.7200000   0.0000000), wk =   0.0040733
        k(  156) = (  -0.7750000   0.7250000   0.0000000), wk =   0.0040733
        k(  157) = (  -0.7700000   0.7300000   0.0000000), wk =   0.0040733
        k(  158) = (  -0.7650000   0.7350000   0.0000000), wk =   0.0040733
        k(  159) = (  -0.7600000   0.7400000   0.0000000), wk =   0.0040733
        k(  160) = (  -0.7550000   0.7450000   0.0000000), wk =   0.0040733
        k(  161) = (  -0.7500000   0.7500000   0.0000000), wk =   0.0040733
        k(  162) = (  -0.7350000   0.7350000   0.0000000), wk =   0.0040733
        k(  163) = (  -0.7200000   0.7200000   0.0000000), wk =   0.0040733
        k(  164) = (  -0.7050000   0.7050000   0.0000000), wk =   0.0040733
        k(  165) = (  -0.6900000   0.6900000   0.0000000), wk =   0.0040733
        k(  166) = (  -0.6750000   0.6750000   0.0000000), wk =   0.0040733
        k(  167) = (  -0.6600000   0.6600000   0.0000000), wk =   0.0040733
        k(  168) = (  -0.6450000   0.6450000   0.0000000), wk =   0.0040733
        k(  169) = (  -0.6300000   0.6300000   0.0000000), wk =   0.0040733
        k(  170) = (  -0.6150000   0.6150000   0.0000000), wk =   0.0040733
        k(  171) = (  -0.6000000   0.6000000   0.0000000), wk =   0.0040733
        k(  172) = (  -0.5850000   0.5850000   0.0000000), wk =   0.0040733
        k(  173) = (  -0.5700000   0.5700000   0.0000000), wk =   0.0040733
        k(  174) = (  -0.5550000   0.5550000   0.0000000), wk =   0.0040733
        k(  175) = (  -0.5400000   0.5400000   0.0000000), wk =   0.0040733
        k(  176) = (  -0.5250000   0.5250000   0.0000000), wk =   0.0040733
        k(  177) = (  -0.5100000   0.5100000   0.0000000), wk =   0.0040733
        k(  178) = (  -0.4950000   0.4950000   0.0000000), wk =   0.0040733
        k(  179) = (  -0.4800000   0.4800000   0.0000000), wk =   0.0040733
        k(  180) = (  -0.4650000   0.4650000   0.0000000), wk =   0.0040733
        k(  181) = (  -0.4500000   0.4500000   0.0000000), wk =   0.0040733
        k(  182) = (  -0.4350000   0.4350000   0.0000000), wk =   0.0040733
        k(  183) = (  -0.4200000   0.4200000   0.0000000), wk =   0.0040733
        k(  184) = (  -0.4050000   0.4050000   0.0000000), wk =   0.0040733
        k(  185) = (  -0.3900000   0.3900000   0.0000000), wk =   0.0040733
        k(  186) = (  -0.3750000   0.3750000   0.0000000), wk =   0.0040733
        k(  187) = (  -0.3600000   0.3600000   0.0000000), wk =   0.0040733
        k(  188) = (  -0.3450000   0.3450000   0.0000000), wk =   0.0040733
        k(  189) = (  -0.3300000   0.3300000   0.0000000), wk =   0.0040733
        k(  190) = (  -0.3150000   0.3150000   0.0000000), wk =   0.0040733
        k(  191) = (  -0.3000000   0.3000000   0.0000000), wk =   0.0040733
        k(  192) = (  -0.2850000   0.2850000   0.0000000), wk =   0.0040733
        k(  193) = (  -0.2700000   0.2700000   0.0000000), wk =   0.0040733
        k(  194) = (  -0.2550000   0.2550000   0.0000000), wk =   0.0040733
        k(  195) = (  -0.2400000   0.2400000   0.0000000), wk =   0.0040733
        k(  196) = (  -0.2250000   0.2250000   0.0000000), wk =   0.0040733
        k(  197) = (  -0.2100000   0.2100000   0.0000000), wk =   0.0040733
        k(  198) = (  -0.1950000   0.1950000   0.0000000), wk =   0.0040733
        k(  199) = (  -0.1800000   0.1800000   0.0000000), wk =   0.0040733
        k(  200) = (  -0.1650000   0.1650000   0.0000000), wk =   0.0040733
        k(  201) = (  -0.1500000   0.1500000   0.0000000), wk =   0.0040733
        k(  202) = (  -0.1350000   0.1350000   0.0000000), wk =   0.0040733
        k(  203) = (  -0.1200000   0.1200000   0.0000000), wk =   0.0040733
        k(  204) = (  -0.1050000   0.1050000   0.0000000), wk =   0.0040733
        k(  205) = (  -0.0900000   0.0900000   0.0000000), wk =   0.0040733
        k(  206) = (  -0.0750000   0.0750000   0.0000000), wk =   0.0040733
        k(  207) = (  -0.0600000   0.0600000   0.0000000), wk =   0.0040733
        k(  208) = (  -0.0450000   0.0450000   0.0000000), wk =   0.0040733
        k(  209) = (  -0.0300000   0.0300000   0.0000000), wk =   0.0040733
        k(  210) = (  -0.0150000   0.0150000   0.0000000), wk =   0.0040733
        k(  211) = (   0.0000000   0.0000000   0.0000000), wk =   0.0040733
        k(  212) = (  -0.0083333   0.0083333   0.0083333), wk =   0.0040733
        k(  213) = (  -0.0166667   0.0166667   0.0166667), wk =   0.0040733
        k(  214) = (  -0.0250000   0.0250000   0.0250000), wk =   0.0040733
        k(  215) = (  -0.0333333   0.0333333   0.0333333), wk =   0.0040733
        k(  216) = (  -0.0416667   0.0416667   0.0416667), wk =   0.0040733
        k(  217) = (  -0.0500000   0.0500000   0.0500000), wk =   0.0040733
        k(  218) = (  -0.0583333   0.0583333   0.0583333), wk =   0.0040733
        k(  219) = (  -0.0666667   0.0666667   0.0666667), wk =   0.0040733
        k(  220) = (  -0.0750000   0.0750000   0.0750000), wk =   0.0040733
        k(  221) = (  -0.0833333   0.0833333   0.0833333), wk =   0.0040733
        k(  222) = (  -0.0916667   0.0916667   0.0916667), wk =   0.0040733
        k(  223) = (  -0.1000000   0.1000000   0.1000000), wk =   0.0040733
        k(  224) = (  -0.1083333   0.1083333   0.1083333), wk =   0.0040733
        k(  225) = (  -0.1166667   0.1166667   0.1166667), wk =   0.0040733
        k(  226) = (  -0.1250000   0.1250000   0.1250000), wk =   0.0040733
        k(  227) = (  -0.1333333   0.1333333   0.1333333), wk =   0.0040733
        k(  228) = (  -0.1416667   0.1416667   0.1416667), wk =   0.0040733
        k(  229) = (  -0.1500000   0.1500000   0.1500000), wk =   0.0040733
        k(  230) = (  -0.1583333   0.1583333   0.1583333), wk =   0.0040733
        k(  231) = (  -0.1666667   0.1666667   0.1666667), wk =   0.0040733
        k(  232) = (  -0.1750000   0.1750000   0.1750000), wk =   0.0040733
        k(  233) = (  -0.1833333   0.1833333   0.1833333), wk =   0.0040733
        k(  234) = (  -0.1916667   0.1916667   0.1916667), wk =   0.0040733
        k(  235) = (  -0.2000000   0.2000000   0.2000000), wk =   0.0040733
        k(  236) = (  -0.2083333   0.2083333   0.2083333), wk =   0.0040733
        k(  237) = (  -0.2166667   0.2166667   0.2166667), wk =   0.0040733
        k(  238) = (  -0.2250000   0.2250000   0.2250000), wk =   0.0040733
        k(  239) = (  -0.2333333   0.2333333   0.2333333), wk =   0.0040733
        k(  240) = (  -0.2416667   0.2416667   0.2416667), wk =   0.0040733
        k(  241) = (  -0.2500000   0.2500000   0.2500000), wk =   0.0040733
        k(  242) = (  -0.2583333   0.2583333   0.2583333), wk =   0.0040733
        k(  243) = (  -0.2666667   0.2666667   0.2666667), wk =   0.0040733
        k(  244) = (  -0.2750000   0.2750000   0.2750000), wk =   0.0040733
        k(  245) = (  -0.2833333   0.2833333   0.2833333), wk =   0.0040733
        k(  246) = (  -0.2916667   0.2916667   0.2916667), wk =   0.0040733
        k(  247) = (  -0.3000000   0.3000000   0.3000000), wk =   0.0040733
        k(  248) = (  -0.3083333   0.3083333   0.3083333), wk =   0.0040733
        k(  249) = (  -0.3166667   0.3166667   0.3166667), wk =   0.0040733
        k(  250) = (  -0.3250000   0.3250000   0.3250000), wk =   0.0040733
        k(  251) = (  -0.3333333   0.3333333   0.3333333), wk =   0.0040733
        k(  252) = (  -0.3416667   0.3416667   0.3416667), wk =   0.0040733
        k(  253) = (  -0.3500000   0.3500000   0.3500000), wk =   0.0040733
        k(  254) = (  -0.3583333   0.3583333   0.3583333), wk =   0.0040733
        k(  255) = (  -0.3666667   0.3666667   0.3666667), wk =   0.0040733
        k(  256) = (  -0.3750000   0.3750000   0.3750000), wk =   0.0040733
        k(  257) = (  -0.3833333   0.3833333   0.3833333), wk =   0.0040733
        k(  258) = (  -0.3916667   0.3916667   0.3916667), wk =   0.0040733
        k(  259) = (  -0.4000000   0.4000000   0.4000000), wk =   0.0040733
        k(  260) = (  -0.4083333   0.4083333   0.4083333), wk =   0.0040733
        k(  261) = (  -0.4166667   0.4166667   0.4166667), wk =   0.0040733
        k(  262) = (  -0.4250000   0.4250000   0.4250000), wk =   0.0040733
        k(  263) = (  -0.4333333   0.4333333   0.4333333), wk =   0.0040733
        k(  264) = (  -0.4416667   0.4416667   0.4416667), wk =   0.0040733
        k(  265) = (  -0.4500000   0.4500000   0.4500000), wk =   0.0040733
        k(  266) = (  -0.4583333   0.4583333   0.4583333), wk =   0.0040733
        k(  267) = (  -0.4666667   0.4666667   0.4666667), wk =   0.0040733
        k(  268) = (  -0.4750000   0.4750000   0.4750000), wk =   0.0040733
        k(  269) = (  -0.4833333   0.4833333   0.4833333), wk =   0.0040733
        k(  270) = (  -0.4916667   0.4916667   0.4916667), wk =   0.0040733
        k(  271) = (  -0.5000000   0.5000000   0.5000000), wk =   0.0040733
        k(  272) = (  -0.5083333   0.4958333   0.4958333), wk =   0.0040733
        k(  273) = (  -0.5166667   0.4916667   0.4916667), wk =   0.0040733
        k(  274) = (  -0.5250000   0.4875000   0.4875000), wk =   0.0040733
        k(  275) = (  -0.5333333   0.4833333   0.4833333), wk =   0.0040733
        k(  276) = (  -0.5416667   0.4791667   0.4791667), wk =   0.0040733
        k(  277) = (  -0.5500000   0.4750000   0.4750000), wk =   0.0040733
        k(  278) = (  -0.5583333   0.4708333   0.4708333), wk =   0.0040733
        k(  279) = (  -0.5666667   0.4666667   0.4666667), wk =   0.0040733
        k(  280) = (  -0.5750000   0.4625000   0.4625000), wk =   0.0040733
        k(  281) = (  -0.5833333   0.4583333   0.4583333), wk =   0.0040733
        k(  282) = (  -0.5916667   0.4541667   0.4541667), wk =   0.0040733
        k(  283) = (  -0.6000000   0.4500000   0.4500000), wk =   0.0040733
        k(  284) = (  -0.6083333   0.4458333   0.4458333), wk =   0.0040733
        k(  285) = (  -0.6166667   0.4416667   0.4416667), wk =   0.0040733
        k(  286) = (  -0.6250000   0.4375000   0.4375000), wk =   0.0040733
        k(  287) = (  -0.6333333   0.4333333   0.4333333), wk =   0.0040733
        k(  288) = (  -0.6416667   0.4291667   0.4291667), wk =   0.0040733
        k(  289) = (  -0.6500000   0.4250000   0.4250000), wk =   0.0040733
        k(  290) = (  -0.6583333   0.4208333   0.4208333), wk =   0.0040733
        k(  291) = (  -0.6666667   0.4166667   0.4166667), wk =   0.0040733
        k(  292) = (  -0.6750000   0.4125000   0.4125000), wk =   0.0040733
        k(  293) = (  -0.6833333   0.4083333   0.4083333), wk =   0.0040733
        k(  294) = (  -0.6916667   0.4041667   0.4041667), wk =   0.0040733
        k(  295) = (  -0.7000000   0.4000000   0.4000000), wk =   0.0040733
        k(  296) = (  -0.7083333   0.3958333   0.3958333), wk =   0.0040733
        k(  297) = (  -0.7166667   0.3916667   0.3916667), wk =   0.0040733
        k(  298) = (  -0.7250000   0.3875000   0.3875000), wk =   0.0040733
        k(  299) = (  -0.7333333   0.3833333   0.3833333), wk =   0.0040733
        k(  300) = (  -0.7416667   0.3791667   0.3791667), wk =   0.0040733
        k(  301) = (  -0.7500000   0.3750000   0.3750000), wk =   0.0040733
        k(  302) = (  -0.7583333   0.3708333   0.3708333), wk =   0.0040733
        k(  303) = (  -0.7666667   0.3666667   0.3666667), wk =   0.0040733
        k(  304) = (  -0.7750000   0.3625000   0.3625000), wk =   0.0040733
        k(  305) = (  -0.7833333   0.3583333   0.3583333), wk =   0.0040733
        k(  306) = (  -0.7916667   0.3541667   0.3541667), wk =   0.0040733
        k(  307) = (  -0.8000000   0.3500000   0.3500000), wk =   0.0040733
        k(  308) = (  -0.8083333   0.3458333   0.3458333), wk =   0.0040733
        k(  309) = (  -0.8166667   0.3416667   0.3416667), wk =   0.0040733
        k(  310) = (  -0.8250000   0.3375000   0.3375000), wk =   0.0040733
        k(  311) = (  -0.8333333   0.3333333   0.3333333), wk =   0.0040733
        k(  312) = (  -0.8416667   0.3291667   0.3291667), wk =   0.0040733
        k(  313) = (  -0.8500000   0.3250000   0.3250000), wk =   0.0040733
        k(  314) = (  -0.8583333   0.3208333   0.3208333), wk =   0.0040733
        k(  315) = (  -0.8666667   0.3166667   0.3166667), wk =   0.0040733
        k(  316) = (  -0.8750000   0.3125000   0.3125000), wk =   0.0040733
        k(  317) = (  -0.8833333   0.3083333   0.3083333), wk =   0.0040733
        k(  318) = (  -0.8916667   0.3041667   0.3041667), wk =   0.0040733
        k(  319) = (  -0.9000000   0.3000000   0.3000000), wk =   0.0040733
        k(  320) = (  -0.9083333   0.2958333   0.2958333), wk =   0.0040733
        k(  321) = (  -0.9166667   0.2916667   0.2916667), wk =   0.0040733
        k(  322) = (  -0.9250000   0.2875000   0.2875000), wk =   0.0040733
        k(  323) = (  -0.9333333   0.2833333   0.2833333), wk =   0.0040733
        k(  324) = (  -0.9416667   0.2791667   0.2791667), wk =   0.0040733
        k(  325) = (  -0.9500000   0.2750000   0.2750000), wk =   0.0040733
        k(  326) = (  -0.9583333   0.2708333   0.2708333), wk =   0.0040733
        k(  327) = (  -0.9666667   0.2666667   0.2666667), wk =   0.0040733
        k(  328) = (  -0.9750000   0.2625000   0.2625000), wk =   0.0040733
        k(  329) = (  -0.9833333   0.2583333   0.2583333), wk =   0.0040733
        k(  330) = (  -0.9916667   0.2541667   0.2541667), wk =   0.0040733
        k(  331) = (  -1.0000000   0.2500000   0.2500000), wk =   0.0040733
        k(  332) = (  -1.0000000   0.2550000   0.2450000), wk =   0.0040733
        k(  333) = (  -1.0000000   0.2600000   0.2400000), wk =   0.0040733
        k(  334) = (  -1.0000000   0.2650000   0.2350000), wk =   0.0040733
        k(  335) = (  -1.0000000   0.2700000   0.2300000), wk =   0.0040733
        k(  336) = (  -1.0000000   0.2750000   0.2250000), wk =   0.0040733
        k(  337) = (  -1.0000000   0.2800000   0.2200000), wk =   0.0040733
        k(  338) = (  -1.0000000   0.2850000   0.2150000), wk =   0.0040733
        k(  339) = (  -1.0000000   0.2900000   0.2100000), wk =   0.0040733
        k(  340) = (  -1.0000000   0.2950000   0.2050000), wk =   0.0040733
        k(  341) = (  -1.0000000   0.3000000   0.2000000), wk =   0.0040733
        k(  342) = (  -1.0000000   0.3050000   0.1950000), wk =   0.0040733
        k(  343) = (  -1.0000000   0.3100000   0.1900000), wk =   0.0040733
        k(  344) = (  -1.0000000   0.3150000   0.1850000), wk =   0.0040733
        k(  345) = (  -1.0000000   0.3200000   0.1800000), wk =   0.0040733
        k(  346) = (  -1.0000000   0.3250000   0.1750000), wk =   0.0040733
        k(  347) = (  -1.0000000   0.3300000   0.1700000), wk =   0.0040733
        k(  348) = (  -1.0000000   0.3350000   0.1650000), wk =   0.0040733
        k(  349) = (  -1.0000000   0.3400000   0.1600000), wk =   0.0040733
        k(  350) = (  -1.0000000   0.3450000   0.1550000), wk =   0.0040733
        k(  351) = (  -1.0000000   0.3500000   0.1500000), wk =   0.0040733
        k(  352) = (  -1.0000000   0.3550000   0.1450000), wk =   0.0040733
        k(  353) = (  -1.0000000   0.3600000   0.1400000), wk =   0.0040733
        k(  354) = (  -1.0000000   0.3650000   0.1350000), wk =   0.0040733
        k(  355) = (  -1.0000000   0.3700000   0.1300000), wk =   0.0040733
        k(  356) = (  -1.0000000   0.3750000   0.1250000), wk =   0.0040733
        k(  357) = (  -1.0000000   0.3800000   0.1200000), wk =   0.0040733
        k(  358) = (  -1.0000000   0.3850000   0.1150000), wk =   0.0040733
        k(  359) = (  -1.0000000   0.3900000   0.1100000), wk =   0.0040733
        k(  360) = (  -1.0000000   0.3950000   0.1050000), wk =   0.0040733
        k(  361) = (  -1.0000000   0.4000000   0.1000000), wk =   0.0040733
        k(  362) = (  -1.0000000   0.4050000   0.0950000), wk =   0.0040733
        k(  363) = (  -1.0000000   0.4100000   0.0900000), wk =   0.0040733
        k(  364) = (  -1.0000000   0.4150000   0.0850000), wk =   0.0040733
        k(  365) = (  -1.0000000   0.4200000   0.0800000), wk =   0.0040733
        k(  366) = (  -1.0000000   0.4250000   0.0750000), wk =   0.0040733
        k(  367) = (  -1.0000000   0.4300000   0.0700000), wk =   0.0040733
        k(  368) = (  -1.0000000   0.4350000   0.0650000), wk =   0.0040733
        k(  369) = (  -1.0000000   0.4400000   0.0600000), wk =   0.0040733
        k(  370) = (  -1.0000000   0.4450000   0.0550000), wk =   0.0040733
        k(  371) = (  -1.0000000   0.4500000   0.0500000), wk =   0.0040733
        k(  372) = (  -1.0000000   0.4550000   0.0450000), wk =   0.0040733
        k(  373) = (  -1.0000000   0.4600000   0.0400000), wk =   0.0040733
        k(  374) = (  -1.0000000   0.4650000   0.0350000), wk =   0.0040733
        k(  375) = (  -1.0000000   0.4700000   0.0300000), wk =   0.0040733
        k(  376) = (  -1.0000000   0.4750000   0.0250000), wk =   0.0040733
        k(  377) = (  -1.0000000   0.4800000   0.0200000), wk =   0.0040733
        k(  378) = (  -1.0000000   0.4850000   0.0150000), wk =   0.0040733
        k(  379) = (  -1.0000000   0.4900000   0.0100000), wk =   0.0040733
        k(  380) = (  -1.0000000   0.4950000   0.0050000), wk =   0.0040733
        k(  381) = (  -1.0000000   0.5000000   0.0000000), wk =   0.0040733
        k(  382) = (  -0.9900000   0.5000000   0.0100000), wk =   0.0040733
        k(  383) = (  -0.9800000   0.5000000   0.0200000), wk =   0.0040733
        k(  384) = (  -0.9700000   0.5000000   0.0300000), wk =   0.0040733
        k(  385) = (  -0.9600000   0.5000000   0.0400000), wk =   0.0040733
        k(  386) = (  -0.9500000   0.5000000   0.0500000), wk =   0.0040733
        k(  387) = (  -0.9400000   0.5000000   0.0600000), wk =   0.0040733
        k(  388) = (  -0.9300000   0.5000000   0.0700000), wk =   0.0040733
        k(  389) = (  -0.9200000   0.5000000   0.0800000), wk =   0.0040733
        k(  390) = (  -0.9100000   0.5000000   0.0900000), wk =   0.0040733
        k(  391) = (  -0.9000000   0.5000000   0.1000000), wk =   0.0040733
        k(  392) = (  -0.8900000   0.5000000   0.1100000), wk =   0.0040733
        k(  393) = (  -0.8800000   0.5000000   0.1200000), wk =   0.0040733
        k(  394) = (  -0.8700000   0.5000000   0.1300000), wk =   0.0040733
        k(  395) = (  -0.8600000   0.5000000   0.1400000), wk =   0.0040733
        k(  396) = (  -0.8500000   0.5000000   0.1500000), wk =   0.0040733
        k(  397) = (  -0.8400000   0.5000000   0.1600000), wk =   0.0040733
        k(  398) = (  -0.8300000   0.5000000   0.1700000), wk =   0.0040733
        k(  399) = (  -0.8200000   0.5000000   0.1800000), wk =   0.0040733
        k(  400) = (  -0.8100000   0.5000000   0.1900000), wk =   0.0040733
        k(  401) = (  -0.8000000   0.5000000   0.2000000), wk =   0.0040733
        k(  402) = (  -0.7900000   0.5000000   0.2100000), wk =   0.0040733
        k(  403) = (  -0.7800000   0.5000000   0.2200000), wk =   0.0040733
        k(  404) = (  -0.7700000   0.5000000   0.2300000), wk =   0.0040733
        k(  405) = (  -0.7600000   0.5000000   0.2400000), wk =   0.0040733
        k(  406) = (  -0.7500000   0.5000000   0.2500000), wk =   0.0040733
        k(  407) = (  -0.7400000   0.5000000   0.2600000), wk =   0.0040733
        k(  408) = (  -0.7300000   0.5000000   0.2700000), wk =   0.0040733
        k(  409) = (  -0.7200000   0.5000000   0.2800000), wk =   0.0040733
        k(  410) = (  -0.7100000   0.5000000   0.2900000), wk =   0.0040733
        k(  411) = (  -0.7000000   0.5000000   0.3000000), wk =   0.0040733
        k(  412) = (  -0.6900000   0.5000000   0.3100000), wk =   0.0040733
        k(  413) = (  -0.6800000   0.5000000   0.3200000), wk =   0.0040733
        k(  414) = (  -0.6700000   0.5000000   0.3300000), wk =   0.0040733
        k(  415) = (  -0.6600000   0.5000000   0.3400000), wk =   0.0040733
        k(  416) = (  -0.6500000   0.5000000   0.3500000), wk =   0.0040733
        k(  417) = (  -0.6400000   0.5000000   0.3600000), wk =   0.0040733
        k(  418) = (  -0.6300000   0.5000000   0.3700000), wk =   0.0040733
        k(  419) = (  -0.6200000   0.5000000   0.3800000), wk =   0.0040733
        k(  420) = (  -0.6100000   0.5000000   0.3900000), wk =   0.0040733
        k(  421) = (  -0.6000000   0.5000000   0.4000000), wk =   0.0040733
        k(  422) = (  -0.5900000   0.5000000   0.4100000), wk =   0.0040733
        k(  423) = (  -0.5800000   0.5000000   0.4200000), wk =   0.0040733
        k(  424) = (  -0.5700000   0.5000000   0.4300000), wk =   0.0040733
        k(  425) = (  -0.5600000   0.5000000   0.4400000), wk =   0.0040733
        k(  426) = (  -0.5500000   0.5000000   0.4500000), wk =   0.0040733
        k(  427) = (  -0.5400000   0.5000000   0.4600000), wk =   0.0040733
        k(  428) = (  -0.5300000   0.5000000   0.4700000), wk =   0.0040733
        k(  429) = (  -0.5200000   0.5000000   0.4800000), wk =   0.0040733
        k(  430) = (  -0.5100000   0.5000000   0.4900000), wk =   0.0040733
        k(  431) = (  -0.5000000   0.5000000   0.5000000), wk =   0.0040733
        k(  432) = (  -0.5041667   0.5041667   0.4916667), wk =   0.0040733
        k(  433) = (  -0.5083333   0.5083333   0.4833333), wk =   0.0040733
        k(  434) = (  -0.5125000   0.5125000   0.4750000), wk =   0.0040733
        k(  435) = (  -0.5166667   0.5166667   0.4666667), wk =   0.0040733
        k(  436) = (  -0.5208333   0.5208333   0.4583333), wk =   0.0040733
        k(  437) = (  -0.5250000   0.5250000   0.4500000), wk =   0.0040733
        k(  438) = (  -0.5291667   0.5291667   0.4416667), wk =   0.0040733
        k(  439) = (  -0.5333333   0.5333333   0.4333333), wk =   0.0040733
        k(  440) = (  -0.5375000   0.5375000   0.4250000), wk =   0.0040733
        k(  441) = (  -0.5416667   0.5416667   0.4166667), wk =   0.0040733
        k(  442) = (  -0.5458333   0.5458333   0.4083333), wk =   0.0040733
        k(  443) = (  -0.5500000   0.5500000   0.4000000), wk =   0.0040733
        k(  444) = (  -0.5541667   0.5541667   0.3916667), wk =   0.0040733
        k(  445) = (  -0.5583333   0.5583333   0.3833333), wk =   0.0040733
        k(  446) = (  -0.5625000   0.5625000   0.3750000), wk =   0.0040733
        k(  447) = (  -0.5666667   0.5666667   0.3666667), wk =   0.0040733
        k(  448) = (  -0.5708333   0.5708333   0.3583333), wk =   0.0040733
        k(  449) = (  -0.5750000   0.5750000   0.3500000), wk =   0.0040733
        k(  450) = (  -0.5791667   0.5791667   0.3416667), wk =   0.0040733
        k(  451) = (  -0.5833333   0.5833333   0.3333333), wk =   0.0040733
        k(  452) = (  -0.5875000   0.5875000   0.3250000), wk =   0.0040733
        k(  453) = (  -0.5916667   0.5916667   0.3166667), wk =   0.0040733
        k(  454) = (  -0.5958333   0.5958333   0.3083333), wk =   0.0040733
        k(  455) = (  -0.6000000   0.6000000   0.3000000), wk =   0.0040733
        k(  456) = (  -0.6041667   0.6041667   0.2916667), wk =   0.0040733
        k(  457) = (  -0.6083333   0.6083333   0.2833333), wk =   0.0040733
        k(  458) = (  -0.6125000   0.6125000   0.2750000), wk =   0.0040733
        k(  459) = (  -0.6166667   0.6166667   0.2666667), wk =   0.0040733
        k(  460) = (  -0.6208333   0.6208333   0.2583333), wk =   0.0040733
        k(  461) = (  -0.6250000   0.6250000   0.2500000), wk =   0.0040733
        k(  462) = (  -0.6291667   0.6291667   0.2416667), wk =   0.0040733
        k(  463) = (  -0.6333333   0.6333333   0.2333333), wk =   0.0040733
        k(  464) = (  -0.6375000   0.6375000   0.2250000), wk =   0.0040733
        k(  465) = (  -0.6416667   0.6416667   0.2166667), wk =   0.0040733
        k(  466) = (  -0.6458333   0.6458333   0.2083333), wk =   0.0040733
        k(  467) = (  -0.6500000   0.6500000   0.2000000), wk =   0.0040733
        k(  468) = (  -0.6541667   0.6541667   0.1916667), wk =   0.0040733
        k(  469) = (  -0.6583333   0.6583333   0.1833333), wk =   0.0040733
        k(  470) = (  -0.6625000   0.6625000   0.1750000), wk =   0.0040733
        k(  471) = (  -0.6666667   0.6666667   0.1666667), wk =   0.0040733
        k(  472) = (  -0.6708333   0.6708333   0.1583333), wk =   0.0040733
        k(  473) = (  -0.6750000   0.6750000   0.1500000), wk =   0.0040733
        k(  474) = (  -0.6791667   0.6791667   0.1416667), wk =   0.0040733
        k(  475) = (  -0.6833333   0.6833333   0.1333333), wk =   0.0040733
        k(  476) = (  -0.6875000   0.6875000   0.1250000), wk =   0.0040733
        k(  477) = (  -0.6916667   0.6916667   0.1166667), wk =   0.0040733
        k(  478) = (  -0.6958333   0.6958333   0.1083333), wk =   0.0040733
        k(  479) = (  -0.7000000   0.7000000   0.1000000), wk =   0.0040733
        k(  480) = (  -0.7041667   0.7041667   0.0916667), wk =   0.0040733
        k(  481) = (  -0.7083333   0.7083333   0.0833333), wk =   0.0040733
        k(  482) = (  -0.7125000   0.7125000   0.0750000), wk =   0.0040733
        k(  483) = (  -0.7166667   0.7166667   0.0666667), wk =   0.0040733
        k(  484) = (  -0.7208333   0.7208333   0.0583333), wk =   0.0040733
        k(  485) = (  -0.7250000   0.7250000   0.0500000), wk =   0.0040733
        k(  486) = (  -0.7291667   0.7291667   0.0416667), wk =   0.0040733
        k(  487) = (  -0.7333333   0.7333333   0.0333333), wk =   0.0040733
        k(  488) = (  -0.7375000   0.7375000   0.0250000), wk =   0.0040733
        k(  489) = (  -0.7416667   0.7416667   0.0166667), wk =   0.0040733
        k(  490) = (  -0.7458333   0.7458333   0.0083333), wk =   0.0040733
        k(  491) = (  -0.7500000   0.7500000   0.0000000), wk =   0.0040733

                       cryst. coord.
        k(    1) = (   0.0000000   0.0000000   0.0000000), wk =   0.0040733
        k(    2) = (   0.0083333   0.0000000   0.0083333), wk =   0.0040733
        k(    3) = (   0.0166667   0.0000000   0.0166667), wk =   0.0040733
        k(    4) = (   0.0250000   0.0000000   0.0250000), wk =   0.0040733
        k(    5) = (   0.0333333   0.0000000   0.0333333), wk =   0.0040733
        k(    6) = (   0.0416667   0.0000000   0.0416667), wk =   0.0040733
        k(    7) = (   0.0500000   0.0000000   0.0500000), wk =   0.0040733
        k(    8) = (   0.0583333   0.0000000   0.0583333), wk =   0.0040733
        k(    9) = (   0.0666667   0.0000000   0.0666667), wk =   0.0040733
        k(   10) = (   0.0750000   0.0000000   0.0750000), wk =   0.0040733
        k(   11) = (   0.0833333   0.0000000   0.0833333), wk =   0.0040733
        k(   12) = (   0.0916667   0.0000000   0.0916667), wk =   0.0040733
        k(   13) = (   0.1000000   0.0000000   0.1000000), wk =   0.0040733
        k(   14) = (   0.1083333   0.0000000   0.1083333), wk =   0.0040733
        k(   15) = (   0.1166667   0.0000000   0.1166667), wk =   0.0040733
        k(   16) = (   0.1250000   0.0000000   0.1250000), wk =   0.0040733
        k(   17) = (   0.1333333   0.0000000   0.1333333), wk =   0.0040733
        k(   18) = (   0.1416667   0.0000000   0.1416667), wk =   0.0040733
        k(   19) = (   0.1500000   0.0000000   0.1500000), wk =   0.0040733
        k(   20) = (   0.1583333   0.0000000   0.1583333), wk =   0.0040733
        k(   21) = (   0.1666667   0.0000000   0.1666667), wk =   0.0040733
        k(   22) = (   0.1750000   0.0000000   0.1750000), wk =   0.0040733
        k(   23) = (   0.1833333   0.0000000   0.1833333), wk =   0.0040733
        k(   24) = (   0.1916667   0.0000000   0.1916667), wk =   0.0040733
        k(   25) = (   0.2000000   0.0000000   0.2000000), wk =   0.0040733
        k(   26) = (   0.2083333   0.0000000   0.2083333), wk =   0.0040733
        k(   27) = (   0.2166667   0.0000000   0.2166667), wk =   0.0040733
        k(   28) = (   0.2250000   0.0000000   0.2250000), wk =   0.0040733
        k(   29) = (   0.2333333   0.0000000   0.2333333), wk =   0.0040733
        k(   30) = (   0.2416667   0.0000000   0.2416667), wk =   0.0040733
        k(   31) = (   0.2500000   0.0000000   0.2500000), wk =   0.0040733
        k(   32) = (   0.2583333   0.0000000   0.2583333), wk =   0.0040733
        k(   33) = (   0.2666667   0.0000000   0.2666667), wk =   0.0040733
        k(   34) = (   0.2750000   0.0000000   0.2750000), wk =   0.0040733
        k(   35) = (   0.2833333   0.0000000   0.2833333), wk =   0.0040733
        k(   36) = (   0.2916667   0.0000000   0.2916667), wk =   0.0040733
        k(   37) = (   0.3000000   0.0000000   0.3000000), wk =   0.0040733
        k(   38) = (   0.3083333   0.0000000   0.3083333), wk =   0.0040733
        k(   39) = (   0.3166667   0.0000000   0.3166667), wk =   0.0040733
        k(   40) = (   0.3250000   0.0000000   0.3250000), wk =   0.0040733
        k(   41) = (   0.3333333   0.0000000   0.3333333), wk =   0.0040733
        k(   42) = (   0.3416667   0.0000000   0.3416667), wk =   0.0040733
        k(   43) = (   0.3500000   0.0000000   0.3500000), wk =   0.0040733
        k(   44) = (   0.3583333   0.0000000   0.3583333), wk =   0.0040733
        k(   45) = (   0.3666667   0.0000000   0.3666667), wk =   0.0040733
        k(   46) = (   0.3750000   0.0000000   0.3750000), wk =   0.0040733
        k(   47) = (   0.3833333   0.0000000   0.3833333), wk =   0.0040733
        k(   48) = (   0.3916667   0.0000000   0.3916667), wk =   0.0040733
        k(   49) = (   0.4000000   0.0000000   0.4000000), wk =   0.0040733
        k(   50) = (   0.4083333   0.0000000   0.4083333), wk =   0.0040733
        k(   51) = (   0.4166667   0.0000000   0.4166667), wk =   0.0040733
        k(   52) = (   0.4250000   0.0000000   0.4250000), wk =   0.0040733
        k(   53) = (   0.4333333   0.0000000   0.4333333), wk =   0.0040733
        k(   54) = (   0.4416667   0.0000000   0.4416667), wk =   0.0040733
        k(   55) = (   0.4500000   0.0000000   0.4500000), wk =   0.0040733
        k(   56) = (   0.4583333   0.0000000   0.4583333), wk =   0.0040733
        k(   57) = (   0.4666667   0.0000000   0.4666667), wk =   0.0040733
        k(   58) = (   0.4750000   0.0000000   0.4750000), wk =   0.0040733
        k(   59) = (   0.4833333   0.0000000   0.4833333), wk =   0.0040733
        k(   60) = (   0.4916667   0.0000000   0.4916667), wk =   0.0040733
        k(   61) = (   0.5000000   0.0000000   0.5000000), wk =   0.0040733
        k(   62) = (   0.5000000   0.0050000   0.5050000), wk =   0.0040733
        k(   63) = (   0.5000000   0.0100000   0.5100000), wk =   0.0040733
        k(   64) = (   0.5000000   0.0150000   0.5150000), wk =   0.0040733
        k(   65) = (   0.5000000   0.0200000   0.5200000), wk =   0.0040733
        k(   66) = (   0.5000000   0.0250000   0.5250000), wk =   0.0040733
        k(   67) = (   0.5000000   0.0300000   0.5300000), wk =   0.0040733
        k(   68) = (   0.5000000   0.0350000   0.5350000), wk =   0.0040733
        k(   69) = (   0.5000000   0.0400000   0.5400000), wk =   0.0040733
        k(   70) = (   0.5000000   0.0450000   0.5450000), wk =   0.0040733
        k(   71) = (   0.5000000   0.0500000   0.5500000), wk =   0.0040733
        k(   72) = (   0.5000000   0.0550000   0.5550000), wk =   0.0040733
        k(   73) = (   0.5000000   0.0600000   0.5600000), wk =   0.0040733
        k(   74) = (   0.5000000   0.0650000   0.5650000), wk =   0.0040733
        k(   75) = (   0.5000000   0.0700000   0.5700000), wk =   0.0040733
        k(   76) = (   0.5000000   0.0750000   0.5750000), wk =   0.0040733
        k(   77) = (   0.5000000   0.0800000   0.5800000), wk =   0.0040733
        k(   78) = (   0.5000000   0.0850000   0.5850000), wk =   0.0040733
        k(   79) = (   0.5000000   0.0900000   0.5900000), wk =   0.0040733
        k(   80) = (   0.5000000   0.0950000   0.5950000), wk =   0.0040733
        k(   81) = (   0.5000000   0.1000000   0.6000000), wk =   0.0040733
        k(   82) = (   0.5000000   0.1050000   0.6050000), wk =   0.0040733
        k(   83) = (   0.5000000   0.1100000   0.6100000), wk =   0.0040733
        k(   84) = (   0.5000000   0.1150000   0.6150000), wk =   0.0040733
        k(   85) = (   0.5000000   0.1200000   0.6200000), wk =   0.0040733
        k(   86) = (   0.5000000   0.1250000   0.6250000), wk =   0.0040733
        k(   87) = (   0.5000000   0.1300000   0.6300000), wk =   0.0040733
        k(   88) = (   0.5000000   0.1350000   0.6350000), wk =   0.0040733
        k(   89) = (   0.5000000   0.1400000   0.6400000), wk =   0.0040733
        k(   90) = (   0.5000000   0.1450000   0.6450000), wk =   0.0040733
        k(   91) = (   0.5000000   0.1500000   0.6500000), wk =   0.0040733
        k(   92) = (   0.5000000   0.1550000   0.6550000), wk =   0.0040733
        k(   93) = (   0.5000000   0.1600000   0.6600000), wk =   0.0040733
        k(   94) = (   0.5000000   0.1650000   0.6650000), wk =   0.0040733
        k(   95) = (   0.5000000   0.1700000   0.6700000), wk =   0.0040733
        k(   96) = (   0.5000000   0.1750000   0.6750000), wk =   0.0040733
        k(   97) = (   0.5000000   0.1800000   0.6800000), wk =   0.0040733
        k(   98) = (   0.5000000   0.1850000   0.6850000), wk =   0.0040733
        k(   99) = (   0.5000000   0.1900000   0.6900000), wk =   0.0040733
        k(  100) = (   0.5000000   0.1950000   0.6950000), wk =   0.0040733
        k(  101) = (   0.5000000   0.2000000   0.7000000), wk =   0.0040733
        k(  102) = (   0.5000000   0.2050000   0.7050000), wk =   0.0040733
        k(  103) = (   0.5000000   0.2100000   0.7100000), wk =   0.0040733
        k(  104) = (   0.5000000   0.2150000   0.7150000), wk =   0.0040733
        k(  105) = (   0.5000000   0.2200000   0.7200000), wk =   0.0040733
        k(  106) = (   0.5000000   0.2250000   0.7250000), wk =   0.0040733
        k(  107) = (   0.5000000   0.2300000   0.7300000), wk =   0.0040733
        k(  108) = (   0.5000000   0.2350000   0.7350000), wk =   0.0040733
        k(  109) = (   0.5000000   0.2400000   0.7400000), wk =   0.0040733
        k(  110) = (   0.5000000   0.2450000   0.7450000), wk =   0.0040733
        k(  111) = (   0.5000000   0.2500000   0.7500000), wk =   0.0040733
        k(  112) = (   0.4975000   0.2525000   0.7500000), wk =   0.0040733
        k(  113) = (   0.4950000   0.2550000   0.7500000), wk =   0.0040733
        k(  114) = (   0.4925000   0.2575000   0.7500000), wk =   0.0040733
        k(  115) = (   0.4900000   0.2600000   0.7500000), wk =   0.0040733
        k(  116) = (   0.4875000   0.2625000   0.7500000), wk =   0.0040733
        k(  117) = (   0.4850000   0.2650000   0.7500000), wk =   0.0040733
        k(  118) = (   0.4825000   0.2675000   0.7500000), wk =   0.0040733
        k(  119) = (   0.4800000   0.2700000   0.7500000), wk =   0.0040733
        k(  120) = (   0.4775000   0.2725000   0.7500000), wk =   0.0040733
        k(  121) = (   0.4750000   0.2750000   0.7500000), wk =   0.0040733
        k(  122) = (   0.4725000   0.2775000   0.7500000), wk =   0.0040733
        k(  123) = (   0.4700000   0.2800000   0.7500000), wk =   0.0040733
        k(  124) = (   0.4675000   0.2825000   0.7500000), wk =   0.0040733
        k(  125) = (   0.4650000   0.2850000   0.7500000), wk =   0.0040733
        k(  126) = (   0.4625000   0.2875000   0.7500000), wk =   0.0040733
        k(  127) = (   0.4600000   0.2900000   0.7500000), wk =   0.0040733
        k(  128) = (   0.4575000   0.2925000   0.7500000), wk =   0.0040733
        k(  129) = (   0.4550000   0.2950000   0.7500000), wk =   0.0040733
        k(  130) = (   0.4525000   0.2975000   0.7500000), wk =   0.0040733
        k(  131) = (   0.4500000   0.3000000   0.7500000), wk =   0.0040733
        k(  132) = (   0.4475000   0.3025000   0.7500000), wk =   0.0040733
        k(  133) = (   0.4450000   0.3050000   0.7500000), wk =   0.0040733
        k(  134) = (   0.4425000   0.3075000   0.7500000), wk =   0.0040733
        k(  135) = (   0.4400000   0.3100000   0.7500000), wk =   0.0040733
        k(  136) = (   0.4375000   0.3125000   0.7500000), wk =   0.0040733
        k(  137) = (   0.4350000   0.3150000   0.7500000), wk =   0.0040733
        k(  138) = (   0.4325000   0.3175000   0.7500000), wk =   0.0040733
        k(  139) = (   0.4300000   0.3200000   0.7500000), wk =   0.0040733
        k(  140) = (   0.4275000   0.3225000   0.7500000), wk =   0.0040733
        k(  141) = (   0.4250000   0.3250000   0.7500000), wk =   0.0040733
        k(  142) = (   0.4225000   0.3275000   0.7500000), wk =   0.0040733
        k(  143) = (   0.4200000   0.3300000   0.7500000), wk =   0.0040733
        k(  144) = (   0.4175000   0.3325000   0.7500000), wk =   0.0040733
        k(  145) = (   0.4150000   0.3350000   0.7500000), wk =   0.0040733
        k(  146) = (   0.4125000   0.3375000   0.7500000), wk =   0.0040733
        k(  147) = (   0.4100000   0.3400000   0.7500000), wk =   0.0040733
        k(  148) = (   0.4075000   0.3425000   0.7500000), wk =   0.0040733
        k(  149) = (   0.4050000   0.3450000   0.7500000), wk =   0.0040733
        k(  150) = (   0.4025000   0.3475000   0.7500000), wk =   0.0040733
        k(  151) = (   0.4000000   0.3500000   0.7500000), wk =   0.0040733
        k(  152) = (   0.3975000   0.3525000   0.7500000), wk =   0.0040733
        k(  153) = (   0.3950000   0.3550000   0.7500000), wk =   0.0040733
        k(  154) = (   0.3925000   0.3575000   0.7500000), wk =   0.0040733
        k(  155) = (   0.3900000   0.3600000   0.7500000), wk =   0.0040733
        k(  156) = (   0.3875000   0.3625000   0.7500000), wk =   0.0040733
        k(  157) = (   0.3850000   0.3650000   0.7500000), wk =   0.0040733
        k(  158) = (   0.3825000   0.3675000   0.7500000), wk =   0.0040733
        k(  159) = (   0.3800000   0.3700000   0.7500000), wk =   0.0040733
        k(  160) = (   0.3775000   0.3725000   0.7500000), wk =   0.0040733
        k(  161) = (   0.3750000   0.3750000   0.7500000), wk =   0.0040733
        k(  162) = (   0.3675000   0.3675000   0.7350000), wk =   0.0040733
        k(  163) = (   0.3600000   0.3600000   0.7200000), wk =   0.0040733
        k(  164) = (   0.3525000   0.3525000   0.7050000), wk =   0.0040733
        k(  165) = (   0.3450000   0.3450000   0.6900000), wk =   0.0040733
        k(  166) = (   0.3375000   0.3375000   0.6750000), wk =   0.0040733
        k(  167) = (   0.3300000   0.3300000   0.6600000), wk =   0.0040733
        k(  168) = (   0.3225000   0.3225000   0.6450000), wk =   0.0040733
        k(  169) = (   0.3150000   0.3150000   0.6300000), wk =   0.0040733
        k(  170) = (   0.3075000   0.3075000   0.6150000), wk =   0.0040733
        k(  171) = (   0.3000000   0.3000000   0.6000000), wk =   0.0040733
        k(  172) = (   0.2925000   0.2925000   0.5850000), wk =   0.0040733
        k(  173) = (   0.2850000   0.2850000   0.5700000), wk =   0.0040733
        k(  174) = (   0.2775000   0.2775000   0.5550000), wk =   0.0040733
        k(  175) = (   0.2700000   0.2700000   0.5400000), wk =   0.0040733
        k(  176) = (   0.2625000   0.2625000   0.5250000), wk =   0.0040733
        k(  177) = (   0.2550000   0.2550000   0.5100000), wk =   0.0040733
        k(  178) = (   0.2475000   0.2475000   0.4950000), wk =   0.0040733
        k(  179) = (   0.2400000   0.2400000   0.4800000), wk =   0.0040733
        k(  180) = (   0.2325000   0.2325000   0.4650000), wk =   0.0040733
        k(  181) = (   0.2250000   0.2250000   0.4500000), wk =   0.0040733
        k(  182) = (   0.2175000   0.2175000   0.4350000), wk =   0.0040733
        k(  183) = (   0.2100000   0.2100000   0.4200000), wk =   0.0040733
        k(  184) = (   0.2025000   0.2025000   0.4050000), wk =   0.0040733
        k(  185) = (   0.1950000   0.1950000   0.3900000), wk =   0.0040733
        k(  186) = (   0.1875000   0.1875000   0.3750000), wk =   0.0040733
        k(  187) = (   0.1800000   0.1800000   0.3600000), wk =   0.0040733
        k(  188) = (   0.1725000   0.1725000   0.3450000), wk =   0.0040733
        k(  189) = (   0.1650000   0.1650000   0.3300000), wk =   0.0040733
        k(  190) = (   0.1575000   0.1575000   0.3150000), wk =   0.0040733
        k(  191) = (   0.1500000   0.1500000   0.3000000), wk =   0.0040733
        k(  192) = (   0.1425000   0.1425000   0.2850000), wk =   0.0040733
        k(  193) = (   0.1350000   0.1350000   0.2700000), wk =   0.0040733
        k(  194) = (   0.1275000   0.1275000   0.2550000), wk =   0.0040733
        k(  195) = (   0.1200000   0.1200000   0.2400000), wk =   0.0040733
        k(  196) = (   0.1125000   0.1125000   0.2250000), wk =   0.0040733
        k(  197) = (   0.1050000   0.1050000   0.2100000), wk =   0.0040733
        k(  198) = (   0.0975000   0.0975000   0.1950000), wk =   0.0040733
        k(  199) = (   0.0900000   0.0900000   0.1800000), wk =   0.0040733
        k(  200) = (   0.0825000   0.0825000   0.1650000), wk =   0.0040733
        k(  201) = (   0.0750000   0.0750000   0.1500000), wk =   0.0040733
        k(  202) = (   0.0675000   0.0675000   0.1350000), wk =   0.0040733
        k(  203) = (   0.0600000   0.0600000   0.1200000), wk =   0.0040733
        k(  204) = (   0.0525000   0.0525000   0.1050000), wk =   0.0040733
        k(  205) = (   0.0450000   0.0450000   0.0900000), wk =   0.0040733
        k(  206) = (   0.0375000   0.0375000   0.0750000), wk =   0.0040733
        k(  207) = (   0.0300000   0.0300000   0.0600000), wk =   0.0040733
        k(  208) = (   0.0225000   0.0225000   0.0450000), wk =   0.0040733
        k(  209) = (   0.0150000   0.0150000   0.0300000), wk =   0.0040733
        k(  210) = (   0.0075000   0.0075000   0.0150000), wk =   0.0040733
        k(  211) = (   0.0000000   0.0000000   0.0000000), wk =   0.0040733
        k(  212) = (   0.0083333   0.0083333   0.0083333), wk =   0.0040733
        k(  213) = (   0.0166667   0.0166667   0.0166667), wk =   0.0040733
        k(  214) = (   0.0250000   0.0250000   0.0250000), wk =   0.0040733
        k(  215) = (   0.0333333   0.0333333   0.0333333), wk =   0.0040733
        k(  216) = (   0.0416667   0.0416667   0.0416667), wk =   0.0040733
        k(  217) = (   0.0500000   0.0500000   0.0500000), wk =   0.0040733
        k(  218) = (   0.0583333   0.0583333   0.0583333), wk =   0.0040733
        k(  219) = (   0.0666667   0.0666667   0.0666667), wk =   0.0040733
        k(  220) = (   0.0750000   0.0750000   0.0750000), wk =   0.0040733
        k(  221) = (   0.0833333   0.0833333   0.0833333), wk =   0.0040733
        k(  222) = (   0.0916667   0.0916667   0.0916667), wk =   0.0040733
        k(  223) = (   0.1000000   0.1000000   0.1000000), wk =   0.0040733
        k(  224) = (   0.1083333   0.1083333   0.1083333), wk =   0.0040733
        k(  225) = (   0.1166667   0.1166667   0.1166667), wk =   0.0040733
        k(  226) = (   0.1250000   0.1250000   0.1250000), wk =   0.0040733
        k(  227) = (   0.1333333   0.1333333   0.1333333), wk =   0.0040733
        k(  228) = (   0.1416667   0.1416667   0.1416667), wk =   0.0040733
        k(  229) = (   0.1500000   0.1500000   0.1500000), wk =   0.0040733
        k(  230) = (   0.1583333   0.1583333   0.1583333), wk =   0.0040733
        k(  231) = (   0.1666667   0.1666667   0.1666667), wk =   0.0040733
        k(  232) = (   0.1750000   0.1750000   0.1750000), wk =   0.0040733
        k(  233) = (   0.1833333   0.1833333   0.1833333), wk =   0.0040733
        k(  234) = (   0.1916667   0.1916667   0.1916667), wk =   0.0040733
        k(  235) = (   0.2000000   0.2000000   0.2000000), wk =   0.0040733
        k(  236) = (   0.2083333   0.2083333   0.2083333), wk =   0.0040733
        k(  237) = (   0.2166667   0.2166667   0.2166667), wk =   0.0040733
        k(  238) = (   0.2250000   0.2250000   0.2250000), wk =   0.0040733
        k(  239) = (   0.2333333   0.2333333   0.2333333), wk =   0.0040733
        k(  240) = (   0.2416667   0.2416667   0.2416667), wk =   0.0040733
        k(  241) = (   0.2500000   0.2500000   0.2500000), wk =   0.0040733
        k(  242) = (   0.2583333   0.2583333   0.2583333), wk =   0.0040733
        k(  243) = (   0.2666667   0.2666667   0.2666667), wk =   0.0040733
        k(  244) = (   0.2750000   0.2750000   0.2750000), wk =   0.0040733
        k(  245) = (   0.2833333   0.2833333   0.2833333), wk =   0.0040733
        k(  246) = (   0.2916667   0.2916667   0.2916667), wk =   0.0040733
        k(  247) = (   0.3000000   0.3000000   0.3000000), wk =   0.0040733
        k(  248) = (   0.3083333   0.3083333   0.3083333), wk =   0.0040733
        k(  249) = (   0.3166667   0.3166667   0.3166667), wk =   0.0040733
        k(  250) = (   0.3250000   0.3250000   0.3250000), wk =   0.0040733
        k(  251) = (   0.3333333   0.3333333   0.3333333), wk =   0.0040733
        k(  252) = (   0.3416667   0.3416667   0.3416667), wk =   0.0040733
        k(  253) = (   0.3500000   0.3500000   0.3500000), wk =   0.0040733
        k(  254) = (   0.3583333   0.3583333   0.3583333), wk =   0.0040733
        k(  255) = (   0.3666667   0.3666667   0.3666667), wk =   0.0040733
        k(  256) = (   0.3750000   0.3750000   0.3750000), wk =   0.0040733
        k(  257) = (   0.3833333   0.3833333   0.3833333), wk =   0.0040733
        k(  258) = (   0.3916667   0.3916667   0.3916667), wk =   0.0040733
        k(  259) = (   0.4000000   0.4000000   0.4000000), wk =   0.0040733
        k(  260) = (   0.4083333   0.4083333   0.4083333), wk =   0.0040733
        k(  261) = (   0.4166667   0.4166667   0.4166667), wk =   0.0040733
        k(  262) = (   0.4250000   0.4250000   0.4250000), wk =   0.0040733
        k(  263) = (   0.4333333   0.4333333   0.4333333), wk =   0.0040733
        k(  264) = (   0.4416667   0.4416667   0.4416667), wk =   0.0040733
        k(  265) = (   0.4500000   0.4500000   0.4500000), wk =   0.0040733
        k(  266) = (   0.4583333   0.4583333   0.4583333), wk =   0.0040733
        k(  267) = (   0.4666667   0.4666667   0.4666667), wk =   0.0040733
        k(  268) = (   0.4750000   0.4750000   0.4750000), wk =   0.0040733
        k(  269) = (   0.4833333   0.4833333   0.4833333), wk =   0.0040733
        k(  270) = (   0.4916667   0.4916667   0.4916667), wk =   0.0040733
        k(  271) = (   0.5000000   0.5000000   0.5000000), wk =   0.0040733
        k(  272) = (   0.5020833   0.4958333   0.5020833), wk =   0.0040733
        k(  273) = (   0.5041667   0.4916667   0.5041667), wk =   0.0040733
        k(  274) = (   0.5062500   0.4875000   0.5062500), wk =   0.0040733
        k(  275) = (   0.5083333   0.4833333   0.5083333), wk =   0.0040733
        k(  276) = (   0.5104167   0.4791667   0.5104167), wk =   0.0040733
        k(  277) = (   0.5125000   0.4750000   0.5125000), wk =   0.0040733
        k(  278) = (   0.5145833   0.4708333   0.5145833), wk =   0.0040733
        k(  279) = (   0.5166667   0.4666667   0.5166667), wk =   0.0040733
        k(  280) = (   0.5187500   0.4625000   0.5187500), wk =   0.0040733
        k(  281) = (   0.5208333   0.4583333   0.5208333), wk =   0.0040733
        k(  282) = (   0.5229167   0.4541667   0.5229167), wk =   0.0040733
        k(  283) = (   0.5250000   0.4500000   0.5250000), wk =   0.0040733
        k(  284) = (   0.5270833   0.4458333   0.5270833), wk =   0.0040733
        k(  285) = (   0.5291667   0.4416667   0.5291667), wk =   0.0040733
        k(  286) = (   0.5312500   0.4375000   0.5312500), wk =   0.0040733
        k(  287) = (   0.5333333   0.4333333   0.5333333), wk =   0.0040733
        k(  288) = (   0.5354167   0.4291667   0.5354167), wk =   0.0040733
        k(  289) = (   0.5375000   0.4250000   0.5375000), wk =   0.0040733
        k(  290) = (   0.5395833   0.4208333   0.5395833), wk =   0.0040733
        k(  291) = (   0.5416667   0.4166667   0.5416667), wk =   0.0040733
        k(  292) = (   0.5437500   0.4125000   0.5437500), wk =   0.0040733
        k(  293) = (   0.5458333   0.4083333   0.5458333), wk =   0.0040733
        k(  294) = (   0.5479167   0.4041667   0.5479167), wk =   0.0040733
        k(  295) = (   0.5500000   0.4000000   0.5500000), wk =   0.0040733
        k(  296) = (   0.5520833   0.3958333   0.5520833), wk =   0.0040733
        k(  297) = (   0.5541667   0.3916667   0.5541667), wk =   0.0040733
        k(  298) = (   0.5562500   0.3875000   0.5562500), wk =   0.0040733
        k(  299) = (   0.5583333   0.3833333   0.5583333), wk =   0.0040733
        k(  300) = (   0.5604167   0.3791667   0.5604167), wk =   0.0040733
        k(  301) = (   0.5625000   0.3750000   0.5625000), wk =   0.0040733
        k(  302) = (   0.5645833   0.3708333   0.5645833), wk =   0.0040733
        k(  303) = (   0.5666667   0.3666667   0.5666667), wk =   0.0040733
        k(  304) = (   0.5687500   0.3625000   0.5687500), wk =   0.0040733
        k(  305) = (   0.5708333   0.3583333   0.5708333), wk =   0.0040733
        k(  306) = (   0.5729167   0.3541667   0.5729167), wk =   0.0040733
        k(  307) = (   0.5750000   0.3500000   0.5750000), wk =   0.0040733
        k(  308) = (   0.5770833   0.3458333   0.5770833), wk =   0.0040733
        k(  309) = (   0.5791667   0.3416667   0.5791667), wk =   0.0040733
        k(  310) = (   0.5812500   0.3375000   0.5812500), wk =   0.0040733
        k(  311) = (   0.5833333   0.3333333   0.5833333), wk =   0.0040733
        k(  312) = (   0.5854167   0.3291667   0.5854167), wk =   0.0040733
        k(  313) = (   0.5875000   0.3250000   0.5875000), wk =   0.0040733
        k(  314) = (   0.5895833   0.3208333   0.5895833), wk =   0.0040733
        k(  315) = (   0.5916667   0.3166667   0.5916667), wk =   0.0040733
        k(  316) = (   0.5937500   0.3125000   0.5937500), wk =   0.0040733
        k(  317) = (   0.5958333   0.3083333   0.5958333), wk =   0.0040733
        k(  318) = (   0.5979167   0.3041667   0.5979167), wk =   0.0040733
        k(  319) = (   0.6000000   0.3000000   0.6000000), wk =   0.0040733
        k(  320) = (   0.6020833   0.2958333   0.6020833), wk =   0.0040733
        k(  321) = (   0.6041667   0.2916667   0.6041667), wk =   0.0040733
        k(  322) = (   0.6062500   0.2875000   0.6062500), wk =   0.0040733
        k(  323) = (   0.6083333   0.2833333   0.6083333), wk =   0.0040733
        k(  324) = (   0.6104167   0.2791667   0.6104167), wk =   0.0040733
        k(  325) = (   0.6125000   0.2750000   0.6125000), wk =   0.0040733
        k(  326) = (   0.6145833   0.2708333   0.6145833), wk =   0.0040733
        k(  327) = (   0.6166667   0.2666667   0.6166667), wk =   0.0040733
        k(  328) = (   0.6187500   0.2625000   0.6187500), wk =   0.0040733
        k(  329) = (   0.6208333   0.2583333   0.6208333), wk =   0.0040733
        k(  330) = (   0.6229167   0.2541667   0.6229167), wk =   0.0040733
        k(  331) = (   0.6250000   0.2500000   0.6250000), wk =   0.0040733
        k(  332) = (   0.6225000   0.2500000   0.6275000), wk =   0.0040733
        k(  333) = (   0.6200000   0.2500000   0.6300000), wk =   0.0040733
        k(  334) = (   0.6175000   0.2500000   0.6325000), wk =   0.0040733
        k(  335) = (   0.6150000   0.2500000   0.6350000), wk =   0.0040733
        k(  336) = (   0.6125000   0.2500000   0.6375000), wk =   0.0040733
        k(  337) = (   0.6100000   0.2500000   0.6400000), wk =   0.0040733
        k(  338) = (   0.6075000   0.2500000   0.6425000), wk =   0.0040733
        k(  339) = (   0.6050000   0.2500000   0.6450000), wk =   0.0040733
        k(  340) = (   0.6025000   0.2500000   0.6475000), wk =   0.0040733
        k(  341) = (   0.6000000   0.2500000   0.6500000), wk =   0.0040733
        k(  342) = (   0.5975000   0.2500000   0.6525000), wk =   0.0040733
        k(  343) = (   0.5950000   0.2500000   0.6550000), wk =   0.0040733
        k(  344) = (   0.5925000   0.2500000   0.6575000), wk =   0.0040733
        k(  345) = (   0.5900000   0.2500000   0.6600000), wk =   0.0040733
        k(  346) = (   0.5875000   0.2500000   0.6625000), wk =   0.0040733
        k(  347) = (   0.5850000   0.2500000   0.6650000), wk =   0.0040733
        k(  348) = (   0.5825000   0.2500000   0.6675000), wk =   0.0040733
        k(  349) = (   0.5800000   0.2500000   0.6700000), wk =   0.0040733
        k(  350) = (   0.5775000   0.2500000   0.6725000), wk =   0.0040733
        k(  351) = (   0.5750000   0.2500000   0.6750000), wk =   0.0040733
        k(  352) = (   0.5725000   0.2500000   0.6775000), wk =   0.0040733
        k(  353) = (   0.5700000   0.2500000   0.6800000), wk =   0.0040733
        k(  354) = (   0.5675000   0.2500000   0.6825000), wk =   0.0040733
        k(  355) = (   0.5650000   0.2500000   0.6850000), wk =   0.0040733
        k(  356) = (   0.5625000   0.2500000   0.6875000), wk =   0.0040733
        k(  357) = (   0.5600000   0.2500000   0.6900000), wk =   0.0040733
        k(  358) = (   0.5575000   0.2500000   0.6925000), wk =   0.0040733
        k(  359) = (   0.5550000   0.2500000   0.6950000), wk =   0.0040733
        k(  360) = (   0.5525000   0.2500000   0.6975000), wk =   0.0040733
        k(  361) = (   0.5500000   0.2500000   0.7000000), wk =   0.0040733
        k(  362) = (   0.5475000   0.2500000   0.7025000), wk =   0.0040733
[...]
    34.8704  35.8257  37.1558  37.2143  38.0103  39.8380  40.0864  40.9011

          k =-0.5542 0.5542 0.3917 (  3448 PWs)   bands (ev):

    -5.9712  -1.5943   3.4941   4.0105   7.1413   9.8599  10.3354  13.5622
    15.7631  17.0423  17.2920  18.7237  19.4185  20.2318  25.4544  27.1943
    27.9682  28.1867  29.5790  29.7989  32.1326  32.1627  32.9394  33.4627
    34.8767  35.8954  36.9755  37.0113  38.2304  39.8482  40.0981  41.0054

          k =-0.5583 0.5583 0.3833 (  3450 PWs)   bands (ev):

    -5.9625  -1.5883   3.4150   3.9923   7.2126   9.8407  10.3780  13.5993
    15.7041  16.9857  17.2393  18.7776  19.4914  20.3721  25.4262  27.1398
    27.9120  28.1789  29.6101  29.8726  31.9754  32.0393  32.9483  33.5221
    34.8826  35.9505  36.8068  36.8077  38.4534  39.8593  40.1057  41.1157

          k =-0.5625 0.5625 0.3750 (  3444 PWs)   bands (ev):

    -5.9531  -1.5820   3.3344   3.9731   7.2833   9.8237  10.4233  13.6332
    15.6460  16.9343  17.1865  18.8336  19.5658  20.5138  25.3949  27.0844
    27.8569  28.1754  29.6359  29.9433  31.7922  31.9314  32.9757  33.5867
    34.8876  35.9803  36.6048  36.6609  38.6785  39.8713  40.1086  41.2320

          k =-0.5667 0.5667 0.3667 (  3448 PWs)   bands (ev):

    -5.9431  -1.5754   3.2527   3.9530   7.3526   9.8094  10.4713  13.6626
    15.5897  16.8887  17.1339  18.8914  19.6414  20.6567  25.3603  27.0289
    27.8029  28.1757  29.6562  30.0091  31.6151  31.8148  33.0169  33.6557
    34.8912  35.9660  36.4035  36.5572  38.9051  39.8846  40.1061  41.3542

          k =-0.5708 0.5708 0.3583 (  3448 PWs)   bands (ev):

    -5.9325  -1.5685   3.1703   3.9320   7.4197   9.7986  10.5220  13.6861
    15.5360  16.8495  17.0816  18.9507  19.7182  20.8007  25.3223  26.9741
    27.7499  28.1792  29.6705  30.0668  31.4477  31.6940  33.0684  33.7284
    34.8925  35.8916  36.2049  36.5125  39.1322  39.8995  40.0972  41.4819

          k =-0.5750 0.5750 0.3500 (  3448 PWs)   bands (ev):

    -5.9214  -1.5613   3.0873   3.9102   7.4841   9.7919  10.5752  13.7025
    15.4858  16.8173  17.0296  19.0113  19.7960  20.9455  25.2809  26.9206
    27.6979  28.1855  29.6784  30.1109  31.2955  31.5723  33.1274  33.8040
    34.8901  35.7670  36.0107  36.5175  39.3586  39.9174  40.0808  41.6143

          k =-0.5792 0.5792 0.3417 (  3450 PWs)   bands (ev):

    -5.9097  -1.5539   3.0041   3.8876   7.5449   9.7900  10.6309  13.7106
    15.4396  16.7927  16.9781  19.0729  19.8747  21.0912  25.2358  26.8689
    27.6471  28.1941  29.6792  30.1333  31.1668  31.4525  33.1922  33.8816
    34.8812  35.6154  35.8238  36.5505  39.5797  39.9424  40.0553  41.7498

          k =-0.5833 0.5833 0.3333 (  3452 PWs)   bands (ev):

    -5.8974  -1.5462   2.9209   3.8644   7.6014   9.7936  10.6890  13.7096
    15.3977  16.7764  16.9271  19.1354  19.9542  21.2376  25.1872  26.8194
    27.5972  28.2047  29.6722  30.1227  31.0730  31.3367  33.2615  33.9597
    34.8612  35.4531  35.6491  36.5967  39.7763  39.9937  40.0187  41.8837

          k =-0.5875 0.5875 0.3250 (  3446 PWs)   bands (ev):

    -5.8846  -1.5384   2.8378   3.8405   7.6531   9.8032  10.7494  13.6987
    15.3602  16.7692  16.8767  19.1985  20.0345  21.3846  25.1350  26.7724
    27.5483  28.2168  29.6568  30.0702  31.0231  31.2270  33.3342  34.0360
    34.8217  35.2898  35.4948  36.6491  39.8868  39.9686  40.1325  41.9886

          k =-0.5917 0.5917 0.3167 (  3450 PWs)   bands (ev):

    -5.8712  -1.5305   2.7550   3.8161   7.6994   9.8195  10.8121  13.6779
    15.3267  16.7715  16.8271  19.2621  20.1155  21.5320  25.0793  26.7281
    27.5003  28.2302  29.6321  29.9764  31.0169  31.1251  33.4094  34.1060
    34.7514  35.1335  35.3724  36.7048  39.9026  39.9280  40.3420  41.9475

          k =-0.5958 0.5958 0.3083 (  3448 PWs)   bands (ev):

    -5.8574  -1.5224   2.6728   3.7911   7.7397   9.8427  10.8770  13.6471
    15.2965  16.7781  16.7839  19.3260  20.1970  21.6799  25.0202  26.6865
    27.4531  28.2444  29.5975  29.8507  31.0327  31.0448  33.4861  34.1613
    34.6428  34.9946  35.2895  36.7621  39.8180  39.9525  40.5693  41.8150

          k =-0.6000 0.6000 0.3000 (  3447 PWs)   bands (ev):

    -5.8430  -1.5143   2.5913   3.7658   7.7739   9.8732  10.9439  13.6071
    15.2687  16.7300  16.8069  19.3901  20.2790  21.8280  24.9579  26.6475
    27.4067  28.2590  29.5528  29.7041  30.9510  31.0961  33.5628  34.1868
    34.4999  34.8902  35.2422  36.8205  39.7130  39.9726  40.8018  41.6851

          k =-0.6042 0.6042 0.2917 (  3455 PWs)   bands (ev):

    -5.8282  -1.5062   2.5107   3.7400   7.8018   9.9111  11.0129  13.5584
    15.2424  16.6827  16.8406  19.4543  20.3615  21.9762  24.8927  26.6111
    27.3609  28.2736  29.4984  29.5453  30.8805  31.1624  33.6366  34.1650
    34.3340  34.8408  35.2192  36.8796  39.5869  39.9913  41.0363  41.5728

          k =-0.6083 0.6083 0.2833 (  3455 PWs)   bands (ev):

    -5.8129  -1.4981   2.4311   3.7140   7.8235   9.9562  11.0838  13.5022
    15.2168  16.6362  16.8850  19.5184  20.4444  22.1245  24.8247  26.5770
    27.3155  28.2874  29.3794  29.4354  30.8214  31.2386  33.6993  34.0989
    34.1548  34.8513  35.2109  36.9396  39.4400  40.0095  41.2715  41.4806

          k =-0.6125 0.6125 0.2750 (  3455 PWs)   bands (ev):

    -5.7971  -1.4902   2.3526   3.6876   7.8390  10.0085  11.1566  13.4395
    15.1910  16.5907  16.9398  19.5823  20.5276  22.2727  24.7542  26.5451
    27.2703  28.2995  29.2101  29.3654  30.7732  31.3215  33.7239  33.9682
    34.0325  34.9047  35.2115  37.0004  39.2744  40.0275  41.4077  41.5063

          k =-0.6167 0.6167 0.2667 (  3453 PWs)   bands (ev):

    -5.7809  -1.4823   2.2755   3.6611   7.8488  10.0674  11.2311  13.3713
    15.1644  16.5462  17.0046  19.6458  20.6110  22.4207  24.6815  26.5149
    27.2250  28.3090  29.0395  29.2911  30.7348  31.4090  33.6640  33.7775
    34.0305  34.9823  35.2176  37.0622  39.0927  40.0454  41.3520  41.7397

          k =-0.6208 0.6208 0.2583 (  3445 PWs)   bands (ev):

    -5.7644  -1.4747   2.1998   3.6344   7.8532  10.1324  11.3074  13.2986
    15.1368  16.5026  17.0789  19.7089  20.6946  22.5684  24.6069  26.4862
    27.1792  28.3142  28.8693  29.2157  30.7050  31.5000  33.5369  33.5848
    34.0863  35.0729  35.2275  37.1252  38.8979  40.0634  41.3110  41.9702

          k =-0.6250 0.6250 0.2500 (  3439 PWs)   bands (ev):

    -5.7474  -1.4673   2.1256   3.6076   7.8528  10.2030  11.3853  13.2224
    15.1078  16.4602  17.1621  19.7715  20.7783  22.7155  24.5307  26.4586
    27.1322  28.3132  28.7010  29.1429  30.6825  31.5934  33.3842  33.3913
    34.1642  35.1706  35.2401  37.1894  38.6930  40.0814  41.2822  42.1949

          k =-0.6292 0.6292 0.2417 (  3443 PWs)   bands (ev):

    -5.7301  -1.4602   2.0532   3.5807   7.8480  10.2784  11.4647  13.1436
    15.0775  16.4188  17.2533  19.8333  20.8620  22.8620  24.4530  26.4316
    27.0834  28.3036  28.5359  29.0768  30.6659  31.6884  33.1981  33.2221
    34.2509  35.2546  35.2720  37.2546  38.4812  40.0993  41.2631  42.4087

          k =-0.6333 0.6333 0.2333 (  3443 PWs)   bands (ev):

    -5.7125  -1.4536   1.9827   3.5538   7.8395  10.3580  11.5455  13.0629
    15.0459  16.3786  17.3520  19.8943  20.9457  23.0076  24.3742  26.4048
    27.0318  28.2831  28.3754  29.0214  30.6541  31.7837  33.0064  33.0567
    34.3421  35.2707  35.3750  37.3200  38.2657  40.1172  41.2521  42.6015

          k =-0.6375 0.6375 0.2250 (  3445 PWs)   bands (ev):

    -5.6946  -1.4474   1.9141   3.5269   7.8276  10.4410  11.6277  12.9813
    15.0130  16.3395  17.4573  19.9544  21.0293  23.1521  24.2945  26.3777
    26.9759  28.2212  28.2503  28.9796  30.6460  31.8777  32.8180  32.8907
    34.4363  35.2879  35.4781  37.3823  38.0519  40.1349  41.2475  42.7540

          k =-0.6417 0.6417 0.2167 (  3441 PWs)   bands (ev):

    -5.6764  -1.4417   1.8477   3.5001   7.8129  10.5265  11.7112  12.8994
    14.9790  16.3018  17.5688  20.0134  21.1127  23.2952  24.2141  26.3498
    26.9143  28.0752  28.2054  28.9527  30.6405  31.9659  32.6373  32.7261
    34.5326  35.3062  35.5798  37.4285  37.8548  40.1525  41.2480  42.8426

          k =-0.6458 0.6458 0.2083 (  3437 PWs)   bands (ev):

    -5.6580  -1.4366   1.7835   3.4735   7.7959  10.6136  11.7958  12.8183
    14.9441  16.2653  17.6858  20.0712  21.1959  23.4365  24.1332  26.3206
    26.8449  27.9396  28.1504  28.9396  30.6367  32.0342  32.4786  32.5641
    34.6306  35.3252  35.6791  37.4040  37.7310  40.1697  41.2528  42.8638

          k =-0.6500 0.6500 0.2000 (  3437 PWs)   bands (ev):

    -5.6394  -1.4321   1.7218   3.4469   7.7769  10.7013  11.8815  12.7387
    14.9085  16.2302  17.8077  20.1278  21.2786  23.5758  24.0520  26.2896
    26.7658  27.8165  28.0888  28.9383  30.6336  32.0342  32.3900  32.4060
    34.7300  35.3450  35.7745  37.2534  37.7376  40.1864  41.2611  42.8399

          k =-0.6542 0.6542 0.1917 (  3437 PWs)   bands (ev):

    -5.6207  -1.4284   1.6625   3.4206   7.7562  10.7884  11.9682  12.6619
    14.8722  16.1965  17.9340  20.1829  21.3609  23.7124  23.9708  26.2565
    26.6753  27.7078  28.0242  28.9460  30.6302  31.9242  32.2530  32.4135
    34.8307  35.3654  35.8640  37.0490  37.8049  40.2026  41.2722  42.7926

          k =-0.6583 0.6583 0.1833 (  3443 PWs)   bands (ev):

    -5.6019  -1.4255   1.6060   3.3945   7.7343  10.8735  12.0557  12.5892
    14.8354  16.1644  18.0643  20.2365  21.4427  23.8450  23.8903  26.2212
    26.5723  27.6146  27.9599  28.9603  30.6253  31.7601  32.1067  32.4930
    34.9322  35.3863  35.9440  36.8354  37.8923  40.2182  41.2855  42.7345

          k =-0.6625 0.6625 0.1750 (  3445 PWs)   bands (ev):

    -5.5829  -1.4234   1.5522   3.3687   7.7114  10.9546  12.1440  12.5225
    14.7983  16.1339  18.1981  20.2884  21.5237  23.8078  23.9760  26.1836
    26.4572  27.5371  27.8986  28.9791  30.6175  31.5801  31.9687  32.5903
    35.0342  35.4076  36.0056  36.6316  37.9905  40.2328  41.3007  42.6718

          k =-0.6667 0.6667 0.1667 (  3445 PWs)   bands (ev):

    -5.5640  -1.4223   1.5013   3.3431   7.6877  11.0294  12.2328  12.4639
    14.7611  16.1050  18.3350  20.3387  21.6040  23.7270  24.1004  26.1443
    26.3309  27.4741  27.8423  29.0006  30.6053  31.3948  31.8413  32.6950
    35.1359  35.4293  36.0216  36.4683  38.0966  40.2465  41.3173  42.6080

          k =-0.6708 0.6708 0.1583 (  3445 PWs)   bands (ev):

    -5.5451  -1.4221   1.4534   3.3179   7.6635  11.0949  12.3221  12.4164
    14.7237  16.0780  18.4746  20.3872  21.6834  23.6466  24.2187  26.1041
    26.1953  27.4241  27.7924  29.0233  30.5869  31.2076  31.7268  32.8035
    35.2352  35.4513  35.9412  36.3995  38.2098  40.2589  41.3350  42.5449

          k =-0.6750 0.6750 0.1500 (  3445 PWs)   bands (ev):

    -5.5262  -1.4228   1.4087   3.2930   7.6390  11.1477  12.3834  12.4118
    14.6864  16.0528  18.6165  20.4338  21.7617  23.5666  24.3289  26.0524
    26.0647  27.3852  27.7499  29.0456  30.5607  31.0197  31.6278  32.9146
    35.3249  35.4735  35.7818  36.4159  38.3295  40.2700  41.3533  42.4837

          k =-0.6792 0.6792 0.1417 (  3445 PWs)   bands (ev):

    -5.5075  -1.4246   1.3672   3.2686   7.6142  11.1842  12.3683  12.5016
    14.6492  16.0297  18.7601  20.4786  21.8388  23.4872  24.4290  25.9040
    26.0284  27.3558  27.7151  29.0661  30.5259  30.8319  31.5464  33.0277
    35.3639  35.4959  35.6382  36.4638  38.4552  40.2795  41.3720  42.4253

          k =-0.6833 0.6833 0.1333 (  3443 PWs)   bands (ev):

    -5.4890  -1.4275   1.3289   3.2445   7.5894  11.2017  12.3737  12.5914
    14.6122  16.0087  18.9051  20.5216  21.9146  23.4084  24.5160  25.7517
    25.9982  27.3345  27.6882  29.0830  30.4827  30.6445  31.4839  33.1423
    35.2457  35.5185  35.6404  36.5205  38.5867  40.2873  41.3906  42.3703

          k =-0.6875 0.6875 0.1250 (  3443 PWs)   bands (ev):

    -5.4707  -1.4313   1.2941   3.2209   7.5647  11.1993  12.4006  12.6810
    14.5755  15.9901  19.0509  20.5629  21.9888  23.3304  24.5868  25.5967
    25.9778  27.3201  27.6690  29.0943  30.4335  30.4577  31.4398  33.2582
    35.0413  35.5411  35.7248  36.5787  38.7235  40.2932  41.4087  42.3193

          k =-0.6917 0.6917 0.1167 (  3443 PWs)   bands (ev):

    -5.4528  -1.4362   1.2626   3.1978   7.5402  11.1781  12.4477  12.7701
    14.5393  15.9740  19.1967  20.6027  22.0613  23.2532  24.6383  25.4403
    25.9711  27.3118  27.6569  29.0979  30.2717  30.3819  31.4128  33.3754
    34.8190  35.5638  35.8260  36.6363  38.8652  40.2969  41.4258  42.2726

          k =-0.6958 0.6958 0.1083 (  3441 PWs)   bands (ev):

    -5.4352  -1.4420   1.2346   3.1751   7.5160  11.1409  12.5120  12.8586
    14.5037  15.9606  19.3418  20.6416  22.1317  23.1769  24.6679  25.2831
    25.9811  27.3091  27.6514  29.0913  30.0865  30.3328  31.4004  33.4936
    34.5918  35.5864  35.9320  36.6925  39.0115  40.2984  41.4415  42.2306

          k =-0.7000 0.7000 0.1000 (  3437 PWs)   bands (ev):

    -5.4180  -1.4488   1.2101   3.1530   7.4922  11.0910  12.5902  12.9462
    14.4688  15.9502  19.4849  20.6800  22.1998  23.1016  24.6752  25.1261
    26.0089  27.3113  27.6515  29.0728  29.9024  30.2911  31.4001  33.6129
    34.3635  35.6090  36.0396  36.7473  39.1618  40.2976  41.4551  42.1936

          k =-0.7042 0.7042 0.0917 (  3439 PWs)   bands (ev):

    -5.4014  -1.4564   1.1891   3.1313   7.4689  11.0316  12.6790  13.0326
    14.4346  15.9429  19.6247  20.7191  22.2653  23.0273  24.6616  24.9698
    26.0537  27.3181  27.6564  29.0412  29.7192  30.2605  31.4096  33.7330
    34.1356  35.6315  36.1473  36.8010  39.3158  40.2943  41.4659  42.1617

          k =-0.7083 0.7083 0.0833 (  3445 PWs)   bands (ev):

    -5.3853  -1.4647   1.1715   3.1103   7.4461  10.9650  12.7756  13.1176
    14.4016  15.9390  19.7589  20.7603  22.3277  22.9542  24.6303  24.8150
    26.1128  27.3293  27.6651  28.9968  29.5373  30.2432  31.4268  33.8540
    33.9093  35.6539  36.2538  36.8546  39.4730  40.2887  41.4732  42.1351

          k =-0.7125 0.7125 0.0750 (  3448 PWs)   bands (ev):

    -5.3700  -1.4737   1.1574   3.0898   7.4238  10.8934  12.8780  13.2007
    14.3698  15.9389  19.8850  20.8058  22.3864  22.8825  24.5853  24.6625
    26.1828  27.3445  27.6763  28.9415  29.3566  30.2396  31.4501  33.6855
    33.9757  35.6762  36.3576  36.9092  39.6329  40.2807  41.4763  42.1140

          k =-0.7167 0.7167 0.0667 (  3448 PWs)   bands (ev):

    -5.3553  -1.4832   1.1467   3.0699   7.4022  10.8180  12.9842  13.2817
    14.3397  15.9428  19.9995  20.8582  22.4408  22.8125  24.5129  24.5303
    26.2600  27.3635  27.6886  28.8787  29.1774  30.2486  31.4782  33.4651
    34.0980  35.6983  36.4570  36.9665  39.7950  40.2704  41.4743  42.0982

          k =-0.7208 0.7208 0.0583 (  3446 PWs)   bands (ev):

    -5.3415  -1.4931   1.1393   3.0506   7.3813  10.7401  13.0927  13.3602
    14.3117  15.9510  20.0986  20.9203  22.4900  22.7448  24.3675  24.4688
    26.3410  27.3861  27.7005  28.8126  28.9999  30.2683  31.5096  33.2494
    34.2208  35.7203  36.5495  37.0288  39.9585  40.2581  41.4665  42.0876

          k =-0.7250 0.7250 0.0500 (  3446 PWs)   bands (ev):

    -5.3286  -1.5032   1.1351   3.0320   7.3611  10.6604  13.2020  13.4358
    14.2866  15.9639  20.1790  20.9944  22.5325  22.6801  24.2276  24.4034
    26.4228  27.4118  27.7103  28.7479  28.8245  30.2965  31.5428  33.0401
    34.3440  35.7423  36.6325  37.0987  40.1226  40.2439  41.4521  42.0823

          k =-0.7292 0.7292 0.0417 (  3446 PWs)   bands (ev):

    -5.3167  -1.5134   1.1342   3.0139   7.3417  10.5794  13.3102  13.5082
    14.2655  15.9818  20.2391  21.0803  22.5669  22.6197  24.0948  24.3364
    26.5024  27.4400  27.7163  28.6516  28.6893  30.3308  31.5755  32.8400
    34.4672  35.7643  36.7039  37.1782  40.2281  40.2860  41.4301  42.0820

          k =-0.7333 0.7333 0.0333 (  3444 PWs)   bands (ev):

    -5.3058  -1.5234   1.1362   2.9966   7.3230  10.4978  13.4151  13.5771
    14.2503  16.0051  20.2793  21.1751  22.5657  22.5908  23.9714  24.2694
    26.5764  27.4697  27.7177  28.4824  28.6413  30.3687  31.6040  32.6536
    34.5903  35.7865  36.7627  37.2683  40.2112  40.4470  41.3992  42.0864

          k =-0.7375 0.7375 0.0250 (  3438 PWs)   bands (ev):

    -5.2961  -1.5331   1.1413   2.9799   7.3052  10.4157  13.5136  13.6419
    14.2437  16.0340  20.3018  21.2734  22.5211  22.6014  23.8605  24.2039
    26.6413  27.4988  27.7149  28.3188  28.6072  30.4079  31.6222  32.4885
    34.7129  35.8093  36.8095  37.3681  40.1933  40.6023  41.3563  42.0953

          k =-0.7417 0.7417 0.0167 (  3438 PWs)   bands (ev):

    -5.2876  -1.5423   1.1492   2.9639   7.2882  10.3336  13.6012  13.7026
    14.2498  16.0688  20.3092  21.3673  22.4908  22.5954  23.7651  24.1409
    26.6926  27.5231  27.7107  28.1653  28.5886  30.4451  31.6199  32.3571
    34.8343  35.8331  36.8456  37.4762  40.1749  40.7453  41.2970  41.9808

          k =-0.7458 0.7458 0.0083 (  3440 PWs)   bands (ev):

    -5.2805  -1.5508   1.1598   2.9486   7.2720  10.2516  13.6724  13.7587
    14.2738  16.1097  20.3040  21.4477  22.4811  22.5699  23.6885  24.0813
    26.7254  27.5321  27.7101  28.0320  28.5853  30.4766  31.5863  32.2739
    34.9539  35.8585  36.8727  37.5908  40.1564  40.8608  41.2209  41.8696

          k =-0.7500 0.7500 0.0000 (  3444 PWs)   bands (ev):

    -5.2747  -1.5584   1.1730   2.9340   7.2568  10.1698  13.7228  13.8102
    14.3200  16.1569  20.2880  21.5055  22.4990  22.5231  23.6324  24.0259
    26.7355  27.5054  27.7189  27.9396  28.5955  30.4967  31.5212  32.2444
    35.0705  35.8865  36.8919  37.7103  40.1381  40.9014  41.1596  41.8186

     Writing all to output data dir ./work/GaAs.save/
 
     init_run     :      0.03s CPU      0.06s WALL (       1 calls)
     electrons    :     77.62s CPU     79.83s WALL (       1 calls)

     Called by init_run:
     wfcinit      :      0.00s CPU      0.00s WALL (       1 calls)
     wfcinit:atom :      0.02s CPU      0.03s WALL (     491 calls)
     wfcinit:wfcr :      2.79s CPU      3.04s WALL (     491 calls)
     potinit      :      0.00s CPU      0.00s WALL (       1 calls)
     hinit0       :      0.02s CPU      0.04s WALL (       1 calls)

     Called by electrons:
     c_bands      :     77.61s CPU     79.82s WALL (       1 calls)
     v_of_rho     :      0.00s CPU      0.00s WALL (       1 calls)
     v_h          :      0.00s CPU      0.00s WALL (       1 calls)
     v_xc         :      0.00s CPU      0.00s WALL (       1 calls)

     Called by c_bands:
     init_us_2    :      0.04s CPU      0.04s WALL (     491 calls)
     init_us_2:cp :      0.04s CPU      0.04s WALL (     491 calls)
     cegterg      :     74.24s CPU     76.12s WALL (    1041 calls)

     Called by sum_band:

     Called by *egterg:
     cdiaghg      :     21.38s CPU     21.88s WALL (   16680 calls)
     cegterg:over :      2.58s CPU      2.68s WALL (   16189 calls)
     cegterg:upda :      0.96s CPU      0.99s WALL (   16189 calls)
     cegterg:last :      1.54s CPU      1.57s WALL (    8685 calls)
     h_psi        :     49.19s CPU     50.65s WALL (   17721 calls)
     g_psi        :      0.27s CPU      0.28s WALL (   16189 calls)

     Called by h_psi:
     h_psi:calbec :      0.90s CPU      0.93s WALL (   17721 calls)
     vloc_psi     :     47.55s CPU     48.96s WALL (   17721 calls)
     add_vuspsi   :      0.56s CPU      0.58s WALL (   17721 calls)

     General routines
     calbec       :      0.86s CPU      0.89s WALL (   17721 calls)
     fft          :      0.00s CPU      0.02s WALL (       3 calls)
     fftw         :     43.95s CPU     45.26s WALL (  571916 calls)
     davcio       :      0.21s CPU      0.25s WALL (     982 calls)
 
     Parallel routines
 
     PWSCF        :   1m19.22s CPU   1m22.35s WALL

 
   This run was terminated on:  10:22:44   1Feb2023            

=------------------------------------------------------------------------------=
   JOB DONE.
=------------------------------------------------------------------------------=
