
     Program BANDS v.7.1 starts on  1Feb2023 at 10:22:46 

     This program is part of the open-source Quantum ESPRESSO suite
     for quantum simulation of materials; please cite
         "P. Giannozzi et al., J. Phys.:Condens. Matter 21 395502 (2009);
         "P. Giannozzi et al., J. Phys.:Condens. Matter 29 465901 (2017);
         "P. Giannozzi et al., J. Chem. Phys. 152 154105 (2020);
          URL http://www.quantum-espresso.org", 
     in publications or presentations arising from this work. More details at
     http://www.quantum-espresso.org/quote

     Parallel version (MPI), running on    20 processors

     MPI processes distributed on     1 nodes
     R & G space division:  proc/nbgrp/npool/nimage =      20
     117166 MiB available memory on the printing compute node when the environment starts
 

     Reading xml data from directory:

     ./work/GaAs.save/

     IMPORTANT: XC functional enforced from input :
     Exchange-correlation= PZ
                           (   1   1   0   0   0   0   0)
     Any further DFT definition will be discarded
     Please, verify this is what you really want

 
     Parallelization info
     --------------------
     sticks:   dense  smooth     PW     G-vecs:    dense   smooth      PW
     Min          60      60     17                 1378     1378     213
     Max          61      61     18                 1381     1381     216
     Sum        1201    1201    349                27581    27581    4279
 
     Using Slab Decomposition
 
     Reading collected, re-writing distributed wavefunctions
     high-symmetry point:  0.0000 0.0000 0.0000   x coordinate   0.0000
     high-symmetry point: -1.0000 0.0000 0.0000   x coordinate   1.0000
     high-symmetry point: -1.0000 0.5000 0.0000   x coordinate   1.5000
     high-symmetry point: -0.7500 0.7500 0.0000   x coordinate   1.8536
     high-symmetry point:  0.0000 0.0000 0.0000   x coordinate   2.9142
     high-symmetry point: -0.5000 0.5000 0.5000   x coordinate   3.7802
     high-symmetry point: -1.0000 0.2500 0.2500   x coordinate   4.3926
     high-symmetry point: -1.0000 0.5000 0.0000   x coordinate   4.7462
     high-symmetry point: -0.5000 0.5000 0.5000   x coordinate   5.4533
     high-symmetry point: -0.7500 0.7500 0.0000   x coordinate   6.0656

     Plottable bands (eV) written to file GaAs.bands.gnu
     Bands written to file GaAs.bands

 **************************************************************************

                    xk=(   0.00000,   0.00000,   0.00000  )

     point group T_d (-43m) 
     there are  5 classes
     the character table:

       E     8C3   3C2   6S4   6s_d 
A_1    1.00  1.00  1.00  1.00  1.00
A_2    1.00  1.00  1.00 -1.00 -1.00
E      2.00 -1.00  2.00  0.00  0.00
T_1    3.00  0.00 -1.00  1.00 -1.00
T_2    3.00  0.00 -1.00 -1.00  1.00

     the symmetry operations in each class and the name of the first element:

     E        1
                                                                 
     8C3      5    7    8    6   12    9   10   11
                                                                 
     3C2      2    3    4
                                                                 
     6S4     15   16   20   19   23   24
                                                                 
     6s_d    13   14   17   18   21   22
                                                                 

     Band symmetry, T_d (-43m)  point group:

     e(  1 -  1) =     -7.82308  eV     1   --> A_1  G_1  P_1  
     e(  2 -  4) =      5.33551  eV     3   --> T_2  G_15 P_4  
     e(  5 -  5) =      6.35101  eV     1   --> A_1  G_1  P_1  
     e(  6 -  8) =      9.17274  eV     3   --> T_2  G_15 P_4  
     e(  9 -  9) =     13.13314  eV     1   --> A_1  G_1  P_1  
     e( 10 - 11) =     15.72849  eV     2   --> E    G_12 P_3  
     e( 12 - 14) =     17.22363  eV     3   --> T_2  G_15 P_4  
     e( 15 - 15) =     20.15746  eV     1   --> A_1  G_1  P_1  
     e( 16 - 18) =     31.84646  eV     3   --> T_2  G_15 P_4  
     e( 19 - 21) =     32.35884  eV     3   --> T_2  G_15 P_4  
     e( 22 - 23) =     33.79034  eV     2   --> E    G_12 P_3  
     e( 24 - 26) =     34.30192  eV     3   --> T_1  G_25 P_5  
     e( 27 - 27) =     41.54962  eV     1   --> A_1  G_1  P_1  
     e( 28 - 30) =     45.27714  eV     3   --> T_2  G_15 P_4  
     e( 31 - 32) =     46.87201  eV     2   --> E    G_12 P_3  

 **************************************************************************

 **************************************************************************

                    xk=(  -0.01667,   0.00000,   0.00000  )

     point group C_2v (mm2) 
     there are  4 classes
     the character table:

       E     C2    s_v   s_v' 
A_1    1.00  1.00  1.00  1.00
A_2    1.00  1.00 -1.00 -1.00
B_1    1.00 -1.00  1.00 -1.00
B_2    1.00 -1.00 -1.00  1.00

     the symmetry operations in each class and the name of the first element:

     E        1
                                                                 
     C2       2
                                                                 
     s_v      3
                                                                 
     s_v'     4
                                                                 

     Band symmetry, C_2v (mm2)  point group:

     e(  1 -  1) =     -7.82200  eV     1   --> A_1  D_1  S_1  
     e(  2 -  2) =      5.31036  eV     1   --> A_1  D_1  S_1  
     e(  3 -  4) =      5.33135  eV     2   --> B_1  D_3  S_3  
     e(  3 -  4) =      5.33135  eV     2   --> B_2  D_4  S_4  
     e(  5 -  5) =      6.37603  eV     1   --> A_1  D_1  S_1  
     e(  6 -  6) =      9.16807  eV     1   --> A_1  D_1  S_1  
     e(  7 -  8) =      9.17836  eV     2   --> B_1  D_3  S_3  
     e(  7 -  8) =      9.17836  eV     2   --> B_2  D_4  S_4  
     e(  9 -  9) =     13.14040  eV     1   --> A_1  D_1  S_1  
     e( 10 - 10) =     15.70185  eV     1   --> A_1  D_1  S_1  
     e( 11 - 11) =     15.72972  eV     1   --> A_2  D_2  S_2  
     e( 12 - 13) =     17.22610  eV     2   --> B_1  D_3  S_3  
     e( 12 - 13) =     17.22610  eV     2   --> B_2  D_4  S_4  
     e( 14 - 14) =     17.24465  eV     1   --> A_1  D_1  S_1  
     e( 15 - 15) =     20.16965  eV     1   --> A_1  D_1  S_1  
     e( 16 - 17) =     31.76351  eV     2   --> B_1  D_3  S_3  
     e( 16 - 17) =     31.76351  eV     2   --> B_2  D_4  S_4  
     e( 18 - 18) =     31.82493  eV     1   --> A_1  D_1  S_1  
     e( 19 - 19) =     32.35998  eV     1   --> A_1  D_1  S_1  
     e( 20 - 21) =     32.42011  eV     2   --> B_1  D_3  S_3  
     e( 20 - 21) =     32.42011  eV     2   --> B_2  D_4  S_4  
     e( 22 - 22) =     33.65187  eV     1   --> A_2  D_2  S_2  
     e( 23 - 23) =     33.80817  eV     1   --> A_1  D_1  S_1  
     e( 24 - 25) =     34.32685  eV     2   --> B_1  D_3  S_3  
     e( 24 - 25) =     34.32685  eV     2   --> B_2  D_4  S_4  
     e( 26 - 26) =     34.44259  eV     1   --> A_2  D_2  S_2  
     e( 27 - 27) =     41.55182  eV     1   --> A_1  D_1  S_1  
     e( 28 - 29) =     45.23506  eV     2   --> B_1  D_3  S_3  
     e( 28 - 29) =     45.23506  eV     2   --> B_2  D_4  S_4  
     e( 30 - 30) =     45.26817  eV     1   --> A_1  D_1  S_1  
     e( 31 - 31) =     46.69173  eV     1   --> A_1  D_1  S_1  
     e( 32 - 32) =     46.86515  eV     1   --> A_2  D_2  S_2  

 **************************************************************************

 **************************************************************************

                    xk=(  -0.03333,   0.00000,   0.00000  )

     Band symmetry, C_2v (mm2)  point group:

     e(  1 -  1) =     -7.81877  eV     1   --> A_1  D_1  S_1  
     e(  2 -  2) =      5.24122  eV     1   --> A_1  D_1  S_1  
     e(  3 -  4) =      5.31897  eV     2   --> B_1  D_3  S_3  
     e(  3 -  4) =      5.31897  eV     2   --> B_2  D_4  S_4  
     e(  5 -  5) =      6.44476  eV     1   --> A_1  D_1  S_1  
     e(  6 -  6) =      9.15419  eV     1   --> A_1  D_1  S_1  
     e(  7 -  8) =      9.19516  eV     2   --> B_1  D_3  S_3  
     e(  7 -  8) =      9.19516  eV     2   --> B_2  D_4  S_4  
     e(  9 -  9) =     13.16206  eV     1   --> A_1  D_1  S_1  
     e( 10 - 10) =     15.62662  eV     1   --> A_1  D_1  S_1  
     e( 11 - 11) =     15.73343  eV     1   --> A_2  D_2  S_2  
     e( 12 - 13) =     17.23350  eV     2   --> B_1  D_3  S_3  
     e( 12 - 13) =     17.23350  eV     2   --> B_2  D_4  S_4  
     e( 14 - 14) =     17.30303  eV     1   --> A_1  D_1  S_1  
     e( 15 - 15) =     20.20621  eV     1   --> A_1  D_1  S_1  
     e( 16 - 17) =     31.57927  eV     2   --> B_1  D_3  S_3  
     e( 16 - 17) =     31.57927  eV     2   --> B_2  D_4  S_4  
     e( 18 - 18) =     31.76265  eV     1   --> A_1  D_1  S_1  
     e( 19 - 19) =     32.36341  eV     1   --> A_1  D_1  S_1  
     e( 20 - 21) =     32.54001  eV     2   --> B_1  D_3  S_3  
     e( 20 - 21) =     32.54001  eV     2   --> B_2  D_4  S_4  
     e( 22 - 22) =     33.39562  eV     1   --> A_2  D_2  S_2  
     e( 23 - 23) =     33.85935  eV     1   --> A_1  D_1  S_1  
     e( 24 - 25) =     34.40092  eV     2   --> B_1  D_3  S_3  
     e( 24 - 25) =     34.40092  eV     2   --> B_2  D_4  S_4  
     e( 26 - 26) =     34.70544  eV     1   --> A_2  D_2  S_2  
     e( 27 - 27) =     41.55826  eV     1   --> A_1  D_1  S_1  
     e( 28 - 29) =     45.11719  eV     2   --> B_1  D_3  S_3  
     e( 28 - 29) =     45.11719  eV     2   --> B_2  D_4  S_4  
     e( 30 - 30) =     45.24159  eV     1   --> A_1  D_1  S_1  
     e( 31 - 31) =     46.39832  eV     1   --> A_1  D_1  S_1  
     e( 32 - 32) =     46.84480  eV     1   --> A_2  D_2  S_2  

 **************************************************************************

 **************************************************************************

                    xk=(  -0.05000,   0.00000,   0.00000  )

     Band symmetry, C_2v (mm2)  point group:

     e(  1 -  1) =     -7.81338  eV     1   --> A_1  D_1  S_1  
     e(  2 -  2) =      5.14105  eV     1   --> A_1  D_1  S_1  
     e(  3 -  4) =      5.29859  eV     2   --> B_1  D_3  S_3  
     e(  3 -  4) =      5.29859  eV     2   --> B_2  D_4  S_4  
     e(  5 -  5) =      6.54419  eV     1   --> A_1  D_1  S_1  
     e(  6 -  6) =      9.13144  eV     1   --> A_1  D_1  S_1  
     e(  7 -  8) =      9.22290  eV     2   --> B_1  D_3  S_3  
     e(  7 -  8) =      9.22290  eV     2   --> B_2  D_4  S_4  
     e(  9 -  9) =     13.19774  eV     1   --> A_1  D_1  S_1  
     e( 10 - 10) =     15.51366  eV     1   --> A_1  D_1  S_1  
     e( 11 - 11) =     15.73962  eV     1   --> A_2  D_2  S_2  
     e( 12 - 13) =     17.24585  eV     2   --> B_1  D_3  S_3  
     e( 12 - 13) =     17.24585  eV     2   --> B_2  D_4  S_4  
     e( 14 - 14) =     17.38806  eV     1   --> A_1  D_1  S_1  
     e( 15 - 15) =     20.26710  eV     1   --> A_1  D_1  S_1  
     e( 16 - 17) =     31.35487  eV     2   --> B_1  D_3  S_3  
     e( 16 - 17) =     31.35487  eV     2   --> B_2  D_4  S_4  
     e( 18 - 18) =     31.66544  eV     1   --> A_1  D_1  S_1  
     e( 19 - 19) =     32.36916  eV     1   --> A_1  D_1  S_1  
     e( 20 - 21) =     32.65992  eV     2   --> B_1  D_3  S_3  
     e( 20 - 21) =     32.65992  eV     2   --> B_2  D_4  S_4  
     e( 22 - 22) =     33.11629  eV     1   --> A_2  D_2  S_2  
     e( 23 - 23) =     33.93805  eV     1   --> A_1  D_1  S_1  
     e( 24 - 25) =     34.52165  eV     2   --> B_1  D_3  S_3  
     e( 24 - 25) =     34.52165  eV     2   --> B_2  D_4  S_4  
     e( 26 - 26) =     34.99576  eV     1   --> A_2  D_2  S_2  
     e( 27 - 27) =     41.56838  eV     1   --> A_1  D_1  S_1  
     e( 28 - 29) =     44.94137  eV     2   --> B_1  D_3  S_3  
     e( 28 - 29) =     44.94137  eV     2   --> B_2  D_4  S_4  
     e( 30 - 30) =     45.19838  eV     1   --> A_1  D_1  S_1  
     e( 31 - 31) =     46.06645  eV     1   --> A_1  D_1  S_1  
     e( 32 - 32) =     46.81174  eV     1   --> A_2  D_2  S_2  

 **************************************************************************

 **************************************************************************

                    xk=(  -0.06667,   0.00000,   0.00000  )

     Band symmetry, C_2v (mm2)  point group:

     e(  1 -  1) =     -7.80585  eV     1   --> A_1  D_1  S_1  
     e(  2 -  2) =      5.02122  eV     1   --> A_1  D_1  S_1  
     e(  3 -  4) =      5.27059  eV     2   --> B_1  D_3  S_3  
     e(  3 -  4) =      5.27059  eV     2   --> B_2  D_4  S_4  
     e(  5 -  5) =      6.66281  eV     1   --> A_1  D_1  S_1  
     e(  6 -  6) =      9.10035  eV     1   --> A_1  D_1  S_1  
     e(  7 -  8) =      9.26120  eV     2   --> B_1  D_3  S_3  
     e(  7 -  8) =      9.26120  eV     2   --> B_2  D_4  S_4  
     e(  9 -  9) =     13.24688  eV     1   --> A_1  D_1  S_1  
     e( 10 - 10) =     15.37437  eV     1   --> A_1  D_1  S_1  
     e( 11 - 11) =     15.74827  eV     1   --> A_2  D_2  S_2  
     e( 12 - 13) =     17.26314  eV     2   --> B_1  D_3  S_3  
     e( 12 - 13) =     17.26314  eV     2   --> B_2  D_4  S_4  
     e( 14 - 14) =     17.48862  eV     1   --> A_1  D_1  S_1  
     e( 15 - 15) =     20.35216  eV     1   --> A_1  D_1  S_1  
     e( 16 - 17) =     31.11122  eV     2   --> B_1  D_3  S_3  
     e( 16 - 17) =     31.11122  eV     2   --> B_2  D_4  S_4  
     e( 18 - 18) =     31.54034  eV     1   --> A_1  D_1  S_1  
     e( 19 - 19) =     32.37723  eV     1   --> A_1  D_1  S_1  
     e( 20 - 21) =     32.76355  eV     2   --> B_1  D_3  S_3  
     e( 20 - 21) =     32.76355  eV     2   --> B_2  D_4  S_4  
     e( 22 - 22) =     32.83134  eV     1   --> A_2  D_2  S_2  
     e( 23 - 23) =     34.03724  eV     1   --> A_1  D_1  S_1  
     e( 24 - 25) =     34.68438  eV     2   --> B_1  D_3  S_3  
     e( 24 - 25) =     34.68438  eV     2   --> B_2  D_4  S_4  
     e( 26 - 26) =     35.29607  eV     1   --> A_2  D_2  S_2  
     e( 27 - 27) =     41.58120  eV     1   --> A_1  D_1  S_1  
     e( 28 - 29) =     44.72424  eV     2   --> B_1  D_3  S_3  
     e( 28 - 29) =     44.72424  eV     2   --> B_2  D_4  S_4  
     e( 30 - 30) =     45.13991  eV     1   --> A_1  D_1  S_1  
     e( 31 - 31) =     45.71578  eV     1   --> A_1  D_1  S_1  
     e( 32 - 32) =     46.76709  eV     1   --> A_2  D_2  S_2  

 **************************************************************************

 **************************************************************************

                    xk=(  -0.08333,   0.00000,   0.00000  )

     Band symmetry, C_2v (mm2)  point group:

     e(  1 -  1) =     -7.79617  eV     1   --> A_1  D_1  S_1  
     e(  2 -  2) =      4.88928  eV     1   --> A_1  D_1  S_1  
     e(  3 -  4) =      5.23545  eV     2   --> B_1  D_3  S_3  
     e(  3 -  4) =      5.23545  eV     2   --> B_2  D_4  S_4  
     e(  5 -  5) =      6.79295  eV     1   --> A_1  D_1  S_1  
     e(  6 -  6) =      9.06163  eV     1   --> A_1  D_1  S_1  
     e(  7 -  8) =      9.30958  eV     2   --> B_1  D_3  S_3  
     e(  7 -  8) =      9.30958  eV     2   --> B_2  D_4  S_4  
     e(  9 -  9) =     13.30870  eV     1   --> A_1  D_1  S_1  
     e( 10 - 10) =     15.21790  eV     1   --> A_1  D_1  S_1  
     e( 11 - 11) =     15.75940  eV     1   --> A_2  D_2  S_2  
     e( 12 - 13) =     17.28538  eV     2   --> B_1  D_3  S_3  
     e( 12 - 13) =     17.28538  eV     2   --> B_2  D_4  S_4  
     e( 14 - 14) =     17.59614  eV     1   --> A_1  D_1  S_1  
     e( 15 - 15) =     20.46104  eV     1   --> A_1  D_1  S_1  
     e( 16 - 17) =     30.85656  eV     2   --> B_1  D_3  S_3  
     e( 16 - 17) =     30.85656  eV     2   --> B_2  D_4  S_4  
     e( 18 - 18) =     31.39379  eV     1   --> A_1  D_1  S_1  
     e( 19 - 19) =     32.38764  eV     1   --> A_1  D_1  S_1  
     e( 20 - 20) =     32.54535  eV     1   --> A_2  D_2  S_2  
     e( 21 - 22) =     32.84909  eV     2   --> B_1  D_3  S_3  
     e( 21 - 22) =     32.84909  eV     2   --> B_2  D_4  S_4  
     e( 23 - 23) =     34.15049  eV     1   --> A_1  D_1  S_1  
     e( 24 - 25) =     34.88271  eV     2   --> B_1  D_3  S_3  
     e( 24 - 25) =     34.88271  eV     2   --> B_2  D_4  S_4  
     e( 26 - 26) =     35.60178  eV     1   --> A_2  D_2  S_2  
     e( 27 - 27) =     41.59520  eV     1   --> A_1  D_1  S_1  
     e( 28 - 29) =     44.47745  eV     2   --> B_1  D_3  S_3  
     e( 28 - 29) =     44.47745  eV     2   --> B_2  D_4  S_4  
     e( 30 - 30) =     45.06721  eV     1   --> A_1  D_1  S_1  
     e( 31 - 31) =     45.35698  eV     1   --> A_1  D_1  S_1  
     e( 32 - 32) =     46.71223  eV     1   --> A_2  D_2  S_2  

 **************************************************************************

 **************************************************************************

                    xk=(  -0.10000,   0.00000,   0.00000  )

     Band symmetry, C_2v (mm2)  point group:

     e(  1 -  1) =     -7.78434  eV     1   --> A_1  D_1  S_1  
     e(  2 -  2) =      4.74976  eV     1   --> A_1  D_1  S_1  
     e(  3 -  4) =      5.19373  eV     2   --> B_1  D_3  S_3  
     e(  3 -  4) =      5.19373  eV     2   --> B_2  D_4  S_4  
     e(  5 -  5) =      6.92984  eV     1   --> A_1  D_1  S_1  
     e(  6 -  6) =      9.01608  eV     1   --> A_1  D_1  S_1  
     e(  7 -  8) =      9.36745  eV     2   --> B_1  D_3  S_3  
     e(  7 -  8) =      9.36745  eV     2   --> B_2  D_4  S_4  
     e(  9 -  9) =     13.38224  eV     1   --> A_1  D_1  S_1  
     e( 10 - 10) =     15.05094  eV     1   --> A_1  D_1  S_1  
     e( 11 - 11) =     15.77300  eV     1   --> A_2  D_2  S_2  
     e( 12 - 13) =     17.31257  eV     2   --> B_1  D_3  S_3  
     e( 12 - 13) =     17.31257  eV     2   --> B_2  D_4  S_4  
     e( 14 - 14) =     17.70495  eV     1   --> A_1  D_1  S_1  
     e( 15 - 15) =     20.59306  eV     1   --> A_1  D_1  S_1  
     e( 16 - 17) =     30.59506  eV     2   --> B_1  D_3  S_3  
     e( 16 - 17) =     30.59506  eV     2   --> B_2  D_4  S_4  
     e( 18 - 18) =     31.23099  eV     1   --> A_1  D_1  S_1  
     e( 19 - 19) =     32.25996  eV     1   --> A_2  D_2  S_2  
     e( 20 - 20) =     32.40038  eV     1   --> A_1  D_1  S_1  
     e( 21 - 22) =     32.91923  eV     2   --> B_1  D_3  S_3  
     e( 21 - 22) =     32.91923  eV     2   --> B_2  D_4  S_4  
     e( 23 - 23) =     34.27265  eV     1   --> A_1  D_1  S_1  
     e( 24 - 25) =     35.10973  eV     2   --> B_1  D_3  S_3  
     e( 24 - 25) =     35.10973  eV     2   --> B_2  D_4  S_4  
     e( 26 - 26) =     35.91120  eV     1   --> A_2  D_2  S_2  
     e( 27 - 27) =     41.60821  eV     1   --> A_1  D_1  S_1  
     e( 28 - 29) =     44.20847  eV     2   --> B_1  D_3  S_3  
     e( 28 - 29) =     44.20847  eV     2   --> B_2  D_4  S_4  
     e( 30 - 30) =     44.95842  eV     1   --> A_1  D_1  S_1  
     e( 31 - 31) =     45.01966  eV     1   --> A_1  D_1  S_1  
     e( 32 - 32) =     46.49134  eV     1   --> A_1  D_1  S_1  

 **************************************************************************

 **************************************************************************

                    xk=(  -0.11667,   0.00000,   0.00000  )

     Band symmetry, C_2v (mm2)  point group:

     e(  1 -  1) =     -7.77037  eV     1   --> A_1  D_1  S_1  
     e(  2 -  2) =      4.60538  eV     1   --> A_1  D_1  S_1  
     e(  3 -  4) =      5.14605  eV     2   --> B_1  D_3  S_3  
     e(  3 -  4) =      5.14605  eV     2   --> B_2  D_4  S_4  
     e(  5 -  5) =      7.07046  eV     1   --> A_1  D_1  S_1  
     e(  6 -  6) =      8.96462  eV     1   --> A_1  D_1  S_1  
     e(  7 -  8) =      9.43420  eV     2   --> B_1  D_3  S_3  
     e(  7 -  8) =      9.43420  eV     2   --> B_2  D_4  S_4  
     e(  9 -  9) =     13.46633  eV     1   --> A_1  D_1  S_1  
     e( 10 - 10) =     14.87839  eV     1   --> A_1  D_1  S_1  
     e( 11 - 11) =     15.78908  eV     1   --> A_2  D_2  S_2  
     e( 12 - 13) =     17.34471  eV     2   --> B_1  D_3  S_3  
     e( 12 - 13) =     17.34471  eV     2   --> B_2  D_4  S_4  
     e( 14 - 14) =     17.81167  eV     1   --> A_1  D_1  S_1  
     e( 15 - 15) =     20.74723  eV     1   --> A_1  D_1  S_1  
     e( 16 - 17) =     30.32922  eV     2   --> B_1  D_3  S_3  
     e( 16 - 17) =     30.32922  eV     2   --> B_2  D_4  S_4  
     e( 18 - 18) =     31.05586  eV     1   --> A_1  D_1  S_1  
     e( 19 - 19) =     31.97592  eV     1   --> A_2  D_2  S_2  
     e( 20 - 20) =     32.41545  eV     1   --> A_1  D_1  S_1  
     e( 21 - 22) =     32.97773  eV     2   --> B_1  D_3  S_3  
     e( 21 - 22) =     32.97773  eV     2   --> B_2  D_4  S_4  
     e( 23 - 23) =     34.39982  eV     1   --> A_1  D_1  S_1  
     e( 24 - 25) =     35.35917  eV     2   --> B_1  D_3  S_3  
     e( 24 - 25) =     35.35917  eV     2   --> B_2  D_4  S_4  
     e( 26 - 26) =     36.22356  eV     1   --> A_2  D_2  S_2  
     e( 27 - 27) =     41.61718  eV     1   --> A_1  D_1  S_1  
     e( 28 - 29) =     43.92208  eV     2   --> B_1  D_3  S_3  
     e( 28 - 29) =     43.92208  eV     2   --> B_2  D_4  S_4  
     e( 30 - 30) =     44.62303  eV     1   --> A_1  D_1  S_1  
     e( 31 - 31) =     44.90017  eV     1   --> A_1  D_1  S_1  
     e( 32 - 32) =     46.18285  eV     1   --> A_1  D_1  S_1  

 **************************************************************************

 **************************************************************************

                    xk=(  -0.13333,   0.00000,   0.00000  )

     Band symmetry, C_2v (mm2)  point group:

     e(  1 -  1) =     -7.75428  eV     1   --> A_1  D_1  S_1  
     e(  2 -  2) =      4.45784  eV     1   --> A_1  D_1  S_1  
     e(  3 -  4) =      5.09305  eV     2   --> B_1  D_3  S_3  
     e(  3 -  4) =      5.09305  eV     2   --> B_2  D_4  S_4  
     e(  5 -  5) =      7.21273  eV     1   --> A_1  D_1  S_1  
     e(  6 -  6) =      8.90821  eV     1   --> A_1  D_1  S_1  
     e(  7 -  8) =      9.50917  eV     2   --> B_1  D_3  S_3  
     e(  7 -  8) =      9.50917  eV     2   --> B_2  D_4  S_4  
     e(  9 -  9) =     13.55944  eV     1   --> A_1  D_1  S_1  
     e( 10 - 10) =     14.70421  eV     1   --> A_1  D_1  S_1  
     e( 11 - 11) =     15.80763  eV     1   --> A_2  D_2  S_2  
     e( 12 - 13) =     17.38183  eV     2   --> B_1  D_3  S_3  
     e( 12 - 13) =     17.38183  eV     2   --> B_2  D_4  S_4  
     e( 14 - 14) =     17.91459  eV     1   --> A_1  D_1  S_1  
     e( 15 - 15) =     20.92225  eV     1   --> A_1  D_1  S_1  
     e( 16 - 17) =     30.06068  eV     2   --> B_1  D_3  S_3  
     e( 16 - 17) =     30.06068  eV     2   --> B_2  D_4  S_4  
     e( 18 - 18) =     30.87130  eV     1   --> A_1  D_1  S_1  
     e( 19 - 19) =     31.69362  eV     1   --> A_2  D_2  S_2  
     e( 20 - 20) =     32.43286  eV     1   --> A_1  D_1  S_1  
     e( 21 - 22) =     33.02804  eV     2   --> B_1  D_3  S_3  
     e( 21 - 22) =     33.02804  eV     2   --> B_2  D_4  S_4  
     e( 23 - 23) =     34.52915  eV     1   --> A_1  D_1  S_1  
     e( 24 - 25) =     35.62595  eV     2   --> B_1  D_3  S_3  
     e( 24 - 25) =     35.62595  eV     2   --> B_2  D_4  S_4  
     e( 26 - 26) =     36.53842  eV     1   --> A_2  D_2  S_2  
     e( 27 - 27) =     41.61789  eV     1   --> A_1  D_1  S_1  
     e( 28 - 29) =     43.62154  eV     2   --> B_1  D_3  S_3  
     e( 28 - 29) =     43.62154  eV     2   --> B_2  D_4  S_4  
     e( 30 - 30) =     44.26515  eV     1   --> A_1  D_1  S_1  
     e( 31 - 31) =     44.79915  eV     1   --> A_1  D_1  S_1  
     e( 32 - 32) =     45.86520  eV     1   --> A_1  D_1  S_1  

 **************************************************************************

 **************************************************************************

                    xk=(  -0.15000,   0.00000,   0.00000  )

     Band symmetry, C_2v (mm2)  point group:

     e(  1 -  1) =     -7.73606  eV     1   --> A_1  D_1  S_1  
     e(  2 -  2) =      4.30821  eV     1   --> A_1  D_1  S_1  
     e(  3 -  4) =      5.03537  eV     2   --> B_1  D_3  S_3  
     e(  3 -  4) =      5.03537  eV     2   --> B_2  D_4  S_4  
     e(  5 -  5) =      7.35507  eV     1   --> A_1  D_1  S_1  
     e(  6 -  6) =      8.84786  eV     1   --> A_1  D_1  S_1  
     e(  7 -  8) =      9.59171  eV     2   --> B_1  D_3  S_3  
     e(  7 -  8) =      9.59171  eV     2   --> B_2  D_4  S_4  
     e(  9 -  9) =     13.65914  eV     1   --> A_1  D_1  S_1  
     e( 10 - 10) =     14.53245  eV     1   --> A_1  D_1  S_1  
     e( 11 - 11) =     15.82864  eV     1   --> A_2  D_2  S_2  
     e( 12 - 13) =     17.42391  eV     2   --> B_1  D_3  S_3  
     e( 12 - 13) =     17.42391  eV     2   --> B_2  D_4  S_4  
     e( 14 - 14) =     18.01310  eV     1   --> A_1  D_1  S_1  
     e( 15 - 15) =     21.11656  eV     1   --> A_1  D_1  S_1  
     e( 16 - 17) =     29.79057  eV     2   --> B_1  D_3  S_3  
     e( 16 - 17) =     29.79057  eV     2   --> B_2  D_4  S_4  
     e( 18 - 18) =     30.67945  eV     1   --> A_1  D_1  S_1  
     e( 19 - 19) =     31.41328  eV     1   --> A_2  D_2  S_2  
     e( 20 - 20) =     32.45260  eV     1   --> A_1  D_1  S_1  
     e( 21 - 22) =     33.07290  eV     2   --> B_1  D_3  S_3  
     e( 21 - 22) =     33.07290  eV     2   --> B_2  D_4  S_4  
     e( 23 - 23) =     34.65855  eV     1   --> A_1  D_1  S_1  
     e( 24 - 25) =     35.90617  eV     2   --> B_1  D_3  S_3  
     e( 24 - 25) =     35.90617  eV     2   --> B_2  D_4  S_4  
     e( 26 - 26) =     36.85549  eV     1   --> A_2  D_2  S_2  
     e( 27 - 27) =     41.60460  eV     1   --> A_1  D_1  S_1  
     e( 28 - 29) =     43.30919  eV     2   --> B_1  D_3  S_3  
     e( 28 - 29) =     43.30919  eV     2   --> B_2  D_4  S_4  
     e( 30 - 30) =     43.91319  eV     1   --> A_1  D_1  S_1  
     e( 31 - 31) =     44.69181  eV     1   --> A_1  D_1  S_1  
     e( 32 - 32) =     45.55217  eV     1   --> A_1  D_1  S_1  

 **************************************************************************

 **************************************************************************

                    xk=(  -0.16667,   0.00000,   0.00000  )

     Band symmetry, C_2v (mm2)  point group:

     e(  1 -  1) =     -7.71571  eV     1   --> A_1  D_1  S_1  
     e(  2 -  2) =      4.15721  eV     1   --> A_1  D_1  S_1  
     e(  3 -  4) =      4.97364  eV     2   --> B_1  D_3  S_3  
     e(  3 -  4) =      4.97364  eV     2   --> B_2  D_4  S_4  
     e(  5 -  5) =      7.49603  eV     1   --> A_1  D_1  S_1  
     e(  6 -  6) =      8.78469  eV     1   --> A_1  D_1  S_1  
     e(  7 -  8) =      9.68117  eV     2   --> B_1  D_3  S_3  
     e(  7 -  8) =      9.68117  eV     2   --> B_2  D_4  S_4  
     e(  9 -  9) =     13.76012  eV     1   --> A_1  D_1  S_1  
     e( 10 - 10) =     14.36954  eV     1   --> A_1  D_1  S_1  
     e( 11 - 11) =     15.85213  eV     1   --> A_2  D_2  S_2  
     e( 12 - 13) =     17.47098  eV     2   --> B_1  D_3  S_3  
     e( 12 - 13) =     17.47098  eV     2   --> B_2  D_4  S_4  
     e( 14 - 14) =     18.10731  eV     1   --> A_1  D_1  S_1  
     e( 15 - 15) =     21.32849  eV     1   --> A_1  D_1  S_1  
     e( 16 - 17) =     29.51969  eV     2   --> B_1  D_3  S_3  
     e( 16 - 17) =     29.51969  eV     2   --> B_2  D_4  S_4  
     e( 18 - 18) =     30.48194  eV     1   --> A_1  D_1  S_1  
     e( 19 - 19) =     31.13506  eV     1   --> A_2  D_2  S_2  
     e( 20 - 20) =     32.47468  eV     1   --> A_1  D_1  S_1  
     e( 21 - 22) =     33.11433  eV     2   --> B_1  D_3  S_3  
     e( 21 - 22) =     33.11433  eV     2   --> B_2  D_4  S_4  
     e( 23 - 23) =     34.78643  eV     1   --> A_1  D_1  S_1  
     e( 24 - 25) =     36.19697  eV     2   --> B_1  D_3  S_3  
     e( 24 - 25) =     36.19697  eV     2   --> B_2  D_4  S_4  
     e( 26 - 26) =     37.17456  eV     1   --> A_2  D_2  S_2  
     e( 27 - 27) =     41.56981  eV     1   --> A_1  D_1  S_1  
     e( 28 - 29) =     42.98687  eV     2   --> B_1  D_3  S_3  
     e( 28 - 29) =     42.98687  eV     2   --> B_2  D_4  S_4  
     e( 30 - 30) =     43.57134  eV     1   --> A_1  D_1  S_1  
     e( 31 - 31) =     44.57534  eV     1   --> A_1  D_1  S_1  
     e( 32 - 32) =     45.25649  eV     1   --> A_1  D_1  S_1  

 **************************************************************************

 **************************************************************************

                    xk=(  -0.18333,   0.00000,   0.00000  )

     Band symmetry, C_2v (mm2)  point group:

     e(  1 -  1) =     -7.69327  eV     1   --> A_1  D_1  S_1  
     e(  2 -  2) =      4.00534  eV     1   --> A_1  D_1  S_1  
     e(  3 -  4) =      4.90846  eV     2   --> B_1  D_3  S_3  
     e(  3 -  4) =      4.90846  eV     2   --> B_2  D_4  S_4  
     e(  5 -  5) =      7.63408  eV     1   --> A_1  D_1  S_1  
     e(  6 -  6) =      8.72000  eV     1   --> A_1  D_1  S_1  
     e(  7 -  8) =      9.77696  eV     2   --> B_1  D_3  S_3  
     e(  7 -  8) =      9.77696  eV     2   --> B_2  D_4  S_4  
     e(  9 -  9) =     13.84474  eV     1   --> A_1  D_1  S_1  
     e( 10 - 10) =     14.23400  eV     1   --> A_1  D_1  S_1  
     e( 11 - 11) =     15.87810  eV     1   --> A_2  D_2  S_2  
     e( 12 - 13) =     17.52304  eV     2   --> B_1  D_3  S_3  
     e( 12 - 13) =     17.52304  eV     2   --> B_2  D_4  S_4  
     e( 14 - 14) =     18.19775  eV     1   --> A_1  D_1  S_1  
     e( 15 - 15) =     21.55634  eV     1   --> A_1  D_1  S_1  
     e( 16 - 17) =     29.24865  eV     2   --> B_1  D_3  S_3  
     e( 16 - 17) =     29.24865  eV     2   --> B_2  D_4  S_4  
     e( 18 - 18) =     30.27998  eV     1   --> A_1  D_1  S_1  
     e( 19 - 19) =     30.85904  eV     1   --> A_2  D_2  S_2  
     e( 20 - 20) =     32.49910  eV     1   --> A_1  D_1  S_1  
     e( 21 - 22) =     33.15379  eV     2   --> B_1  D_3  S_3  
     e( 21 - 22) =     33.15379  eV     2   --> B_2  D_4  S_4  
     e( 23 - 23) =     34.91161  eV     1   --> A_1  D_1  S_1  
     e( 24 - 25) =     36.49627  eV     2   --> B_1  D_3  S_3  
     e( 24 - 25) =     36.49627  eV     2   --> B_2  D_4  S_4  
     e( 26 - 26) =     37.49545  eV     1   --> A_2  D_2  S_2  
     e( 27 - 27) =     41.50441  eV     1   --> A_1  D_1  S_1  
     e( 28 - 29) =     42.65607  eV     2   --> B_1  D_3  S_3  
     e( 28 - 29) =     42.65607  eV     2   --> B_2  D_4  S_4  
     e( 30 - 30) =     43.24313  eV     1   --> A_1  D_1  S_1  
     e( 31 - 31) =     44.44268  eV     1   --> A_1  D_1  S_1  
     e( 32 - 32) =     44.99497  eV     1   --> A_1  D_1  S_1  

 **************************************************************************

 **************************************************************************

                    xk=(  -0.20000,   0.00000,   0.00000  )

     Band symmetry, C_2v (mm2)  point group:

     e(  1 -  1) =     -7.66873  eV     1   --> A_1  D_1  S_1  
     e(  2 -  2) =      3.85294  eV     1   --> A_1  D_1  S_1  
     e(  3 -  4) =      4.84037  eV     2   --> B_1  D_3  S_3  
     e(  3 -  4) =      4.84037  eV     2   --> B_2  D_4  S_4  
     e(  5 -  5) =      7.76725  eV     1   --> A_1  D_1  S_1  
     e(  6 -  6) =      8.65556  eV     1   --> A_1  D_1  S_1  
     e(  7 -  8) =      9.87848  eV     2   --> B_1  D_3  S_3  
     e(  7 -  8) =      9.87848  eV     2   --> B_2  D_4  S_4  
     e(  9 -  9) =     13.85207  eV     1   --> A_1  D_1  S_1  
     e( 10 - 10) =     14.18748  eV     1   --> A_1  D_1  S_1  
     e( 11 - 11) =     15.90653  eV     1   --> A_2  D_2  S_2  
     e( 12 - 13) =     17.58010  eV     2   --> B_1  D_3  S_3  
     e( 12 - 13) =     17.58010  eV     2   --> B_2  D_4  S_4  
     e( 14 - 14) =     18.28518  eV     1   --> A_1  D_1  S_1  
     e( 15 - 15) =     21.79846  eV     1   --> A_1  D_1  S_1  
     e( 16 - 17) =     28.97789  eV     2   --> B_1  D_3  S_3  
     e( 16 - 17) =     28.97789  eV     2   --> B_2  D_4  S_4  
     e( 18 - 18) =     30.07456  eV     1   --> A_1  D_1  S_1  
     e( 19 - 19) =     30.58530  eV     1   --> A_2  D_2  S_2  
     e( 20 - 20) =     32.52587  eV     1   --> A_1  D_1  S_1  
     e( 21 - 22) =     33.19235  eV     2   --> B_1  D_3  S_3  
     e( 21 - 22) =     33.19235  eV     2   --> B_2  D_4  S_4  
     e( 23 - 23) =     35.03309  eV     1   --> A_1  D_1  S_1  
     e( 24 - 25) =     36.80252  eV     2   --> B_1  D_3  S_3  
     e( 24 - 25) =     36.80252  eV     2   --> B_2  D_4  S_4  
     e( 26 - 26) =     37.81798  eV     1   --> A_2  D_2  S_2  
     e( 27 - 27) =     41.39887  eV     1   --> A_1  D_1  S_1  
     e( 28 - 29) =     42.31810  eV     2   --> B_1  D_3  S_3  
     e( 28 - 29) =     42.31810  eV     2   --> B_2  D_4  S_4  
     e( 30 - 30) =     42.93101  eV     1   --> A_1  D_1  S_1  
     e( 31 - 31) =     44.28232  eV     1   --> A_1  D_1  S_1  
     e( 32 - 32) =     44.78904  eV     1   --> A_1  D_1  S_1  

 **************************************************************************

 **************************************************************************

                    xk=(  -0.21667,   0.00000,   0.00000  )

     Band symmetry, C_2v (mm2)  point group:

     e(  1 -  1) =     -7.64210  eV     1   --> A_1  D_1  S_1  
     e(  2 -  2) =      3.70027  eV     1   --> A_1  D_1  S_1  
     e(  3 -  4) =      4.76990  eV     2   --> B_1  D_3  S_3  
     e(  3 -  4) =      4.76990  eV     2   --> B_2  D_4  S_4  
     e(  5 -  5) =      7.89242  eV     1   --> A_1  D_1  S_1  
     e(  6 -  6) =      8.59417  eV     1   --> A_1  D_1  S_1  
     e(  7 -  8) =      9.98522  eV     2   --> B_1  D_3  S_3  
     e(  7 -  8) =      9.98522  eV     2   --> B_2  D_4  S_4  
     e(  9 -  9) =     13.75202  eV     1   --> A_1  D_1  S_1  
     e( 10 - 10) =     14.26074  eV     1   --> A_1  D_1  S_1  
     e( 11 - 11) =     15.93743  eV     1   --> A_2  D_2  S_2  
     e( 12 - 13) =     17.64217  eV     2   --> B_1  D_3  S_3  
     e( 12 - 13) =     17.64217  eV     2   --> B_2  D_4  S_4  
     e( 14 - 14) =     18.37041  eV     1   --> A_1  D_1  S_1  
     e( 15 - 15) =     22.05332  eV     1   --> A_1  D_1  S_1  
     e( 16 - 17) =     28.70777  eV     2   --> B_1  D_3  S_3  
     e( 16 - 17) =     28.70777  eV     2   --> B_2  D_4  S_4  
     e( 18 - 18) =     29.86645  eV     1   --> A_1  D_1  S_1  
     e( 19 - 19) =     30.31388  eV     1   --> A_2  D_2  S_2  
     e( 20 - 20) =     32.55498  eV     1   --> A_1  D_1  S_1  
     e( 21 - 22) =     33.23074  eV     2   --> B_1  D_3  S_3  
     e( 21 - 22) =     33.23074  eV     2   --> B_2  D_4  S_4  
     e( 23 - 23) =     35.15008  eV     1   --> A_1  D_1  S_1  
     e( 24 - 25) =     37.11458  eV     2   --> B_1  D_3  S_3  
     e( 24 - 25) =     37.11458  eV     2   --> B_2  D_4  S_4  
     e( 26 - 26) =     38.14200  eV     1   --> A_2  D_2  S_2  
     e( 27 - 27) =     41.24611  eV     1   --> A_1  D_1  S_1  
     e( 28 - 29) =     41.97406  eV     2   --> B_1  D_3  S_3  
     e( 28 - 29) =     41.97406  eV     2   --> B_2  D_4  S_4  
     e( 30 - 30) =     42.63444  eV     1   --> A_1  D_1  S_1  
     e( 31 - 31) =     44.09231  eV     1   --> A_1  D_1  S_1  
     e( 32 - 32) =     44.65030  eV     1   --> A_1  D_1  S_1  

 **************************************************************************

 **************************************************************************

                    xk=(  -0.23333,   0.00000,   0.00000  )

     Band symmetry, C_2v (mm2)  point group:

     e(  1 -  1) =     -7.61340  eV     1   --> A_1  D_1  S_1  
     e(  2 -  2) =      3.54753  eV     1   --> A_1  D_1  S_1  
     e(  3 -  4) =      4.69751  eV     2   --> B_1  D_3  S_3  
     e(  3 -  4) =      4.69751  eV     2   --> B_2  D_4  S_4  
     e(  5 -  5) =      8.00375  eV     1   --> A_1  D_1  S_1  
     e(  6 -  6) =      8.54127  eV     1   --> A_1  D_1  S_1  
     e(  7 -  8) =     10.09668  eV     2   --> B_1  D_3  S_3  
     e(  7 -  8) =     10.09668  eV     2   --> B_2  D_4  S_4  
     e(  9 -  9) =     13.61542  eV     1   --> A_1  D_1  S_1  
     e( 10 - 10) =     14.38369  eV     1   --> A_1  D_1  S_1  
     e( 11 - 11) =     15.97080  eV     1   --> A_2  D_2  S_2  
     e( 12 - 13) =     17.70925  eV     2   --> B_1  D_3  S_3  
     e( 12 - 13) =     17.70925  eV     2   --> B_2  D_4  S_4  
     e( 14 - 14) =     18.45426  eV     1   --> A_1  D_1  S_1  
     e( 15 - 15) =     22.31956  eV     1   --> A_1  D_1  S_1  
     e( 16 - 17) =     28.43855  eV     2   --> B_1  D_3  S_3  
     e( 16 - 17) =     28.43855  eV     2   --> B_2  D_4  S_4  
     e( 18 - 18) =     29.65629  eV     1   --> A_1  D_1  S_1  
     e( 19 - 19) =     30.04483  eV     1   --> A_2  D_2  S_2  
     e( 20 - 20) =     32.58645  eV     1   --> A_1  D_1  S_1  
     e( 21 - 22) =     33.26950  eV     2   --> B_1  D_3  S_3  
     e( 21 - 22) =     33.26950  eV     2   --> B_2  D_4  S_4  
     e( 23 - 23) =     35.26183  eV     1   --> A_1  D_1  S_1  
     e( 24 - 25) =     37.43159  eV     2   --> B_1  D_3  S_3  
     e( 24 - 25) =     37.43159  eV     2   --> B_2  D_4  S_4  
     e( 26 - 26) =     38.46729  eV     1   --> A_2  D_2  S_2  
     e( 27 - 27) =     41.04498  eV     1   --> A_1  D_1  S_1  
     e( 28 - 29) =     41.62497  eV     2   --> B_1  D_3  S_3  
     e( 28 - 29) =     41.62497  eV     2   --> B_2  D_4  S_4  
     e( 30 - 30) =     42.34831  eV     1   --> A_1  D_1  S_1  
     e( 31 - 31) =     43.88962  eV     1   --> A_1  D_1  S_1  
     e( 32 - 32) =     44.56961  eV     1   --> A_1  D_1  S_1  

 **************************************************************************

 **************************************************************************

                    xk=(  -0.25000,   0.00000,   0.00000  )

     Band symmetry, C_2v (mm2)  point group:

     e(  1 -  1) =     -7.58264  eV     1   --> A_1  D_1  S_1  
     e(  2 -  2) =      3.39485  eV     1   --> A_1  D_1  S_1  
     e(  3 -  4) =      4.62364  eV     2   --> B_1  D_3  S_3  
     e(  3 -  4) =      4.62364  eV     2   --> B_2  D_4  S_4  
     e(  5 -  5) =      8.08920  eV     1   --> A_1  D_1  S_1  
     e(  6 -  6) =      8.50835  eV     1   --> A_1  D_1  S_1  
     e(  7 -  8) =     10.21242  eV     2   --> B_1  D_3  S_3  
     e(  7 -  8) =     10.21242  eV     2   --> B_2  D_4  S_4  
     e(  9 -  9) =     13.47477  eV     1   --> A_1  D_1  S_1  
     e( 10 - 10) =     14.52459  eV     1   --> A_1  D_1  S_1  
     e( 11 - 11) =     16.00663  eV     1   --> A_2  D_2  S_2  
     e( 12 - 13) =     17.78137  eV     2   --> B_1  D_3  S_3  
     e( 12 - 13) =     17.78137  eV     2   --> B_2  D_4  S_4  
     e( 14 - 14) =     18.53750  eV     1   --> A_1  D_1  S_1  
     e( 15 - 15) =     22.59595  eV     1   --> A_1  D_1  S_1  
     e( 16 - 17) =     28.17046  eV     2   --> B_1  D_3  S_3  
     e( 16 - 17) =     28.17046  eV     2   --> B_2  D_4  S_4  
     e( 18 - 18) =     29.44463  eV     1   --> A_1  D_1  S_1  
     e( 19 - 19) =     29.77818  eV     1   --> A_2  D_2  S_2  
     e( 20 - 20) =     32.62028  eV     1   --> A_1  D_1  S_1  
     e( 21 - 22) =     33.30903  eV     2   --> B_1  D_3  S_3  
     e( 21 - 22) =     33.30903  eV     2   --> B_2  D_4  S_4  
     e( 23 - 23) =     35.36758  eV     1   --> A_1  D_1  S_1  
     e( 24 - 25) =     37.75288  eV     2   --> B_1  D_3  S_3  
     e( 24 - 25) =     37.75288  eV     2   --> B_2  D_4  S_4  
     e( 26 - 26) =     38.79365  eV     1   --> A_2  D_2  S_2  
     e( 27 - 27) =     40.80135  eV     1   --> A_1  D_1  S_1  
     e( 28 - 29) =     41.27173  eV     2   --> B_1  D_3  S_3  
     e( 28 - 29) =     41.27173  eV     2   --> B_2  D_4  S_4  
     e( 30 - 30) =     42.06400  eV     1   --> A_1  D_1  S_1  
     e( 31 - 31) =     43.69181  eV     1   --> A_1  D_1  S_1  
     e( 32 - 32) =     44.53341  eV     1   --> A_1  D_1  S_1  

 **************************************************************************

 **************************************************************************

                    xk=(  -0.26667,   0.00000,   0.00000  )

     Band symmetry, C_2v (mm2)  point group:

     e(  1 -  1) =     -7.54984  eV     1   --> A_1  D_1  S_1  
     e(  2 -  2) =      3.24237  eV     1   --> A_1  D_1  S_1  
     e(  3 -  4) =      4.54866  eV     2   --> B_1  D_3  S_3  
     e(  3 -  4) =      4.54866  eV     2   --> B_2  D_4  S_4  
     e(  5 -  5) =      8.12970  eV     1   --> A_1  D_1  S_1  
     e(  6 -  6) =      8.51378  eV     1   --> A_1  D_1  S_1  
     e(  7 -  8) =     10.33203  eV     2   --> B_1  D_3  S_3  
     e(  7 -  8) =     10.33203  eV     2   --> B_2  D_4  S_4  
     e(  9 -  9) =     13.33912  eV     1   --> A_1  D_1  S_1  
     e( 10 - 10) =     14.67527  eV     1   --> A_1  D_1  S_1  
     e( 11 - 11) =     16.04494  eV     1   --> A_2  D_2  S_2  
     e( 12 - 13) =     17.85851  eV     2   --> B_1  D_3  S_3  
     e( 12 - 13) =     17.85851  eV     2   --> B_2  D_4  S_4  
     e( 14 - 14) =     18.62080  eV     1   --> A_1  D_1  S_1  
     e( 15 - 15) =     22.88144  eV     1   --> A_1  D_1  S_1  
     e( 16 - 17) =     27.90367  eV     2   --> B_1  D_3  S_3  
     e( 16 - 17) =     27.90367  eV     2   --> B_2  D_4  S_4  
     e( 18 - 18) =     29.23194  eV     1   --> A_1  D_1  S_1  
     e( 19 - 19) =     29.51395  eV     1   --> A_2  D_2  S_2  
     e( 20 - 20) =     32.65648  eV     1   --> A_1  D_1  S_1  
     e( 21 - 22) =     33.34960  eV     2   --> B_1  D_3  S_3  
     e( 21 - 22) =     33.34960  eV     2   --> B_2  D_4  S_4  
     e( 23 - 23) =     35.46654  eV     1   --> A_1  D_1  S_1  
     e( 24 - 25) =     38.07787  eV     2   --> B_1  D_3  S_3  
     e( 24 - 25) =     38.07787  eV     2   --> B_2  D_4  S_4  
     e( 26 - 26) =     39.12083  eV     1   --> A_2  D_2  S_2  
     e( 27 - 27) =     40.52540  eV     1   --> A_1  D_1  S_1  
     e( 28 - 29) =     40.91519  eV     2   --> B_1  D_3  S_3  
     e( 28 - 29) =     40.91519  eV     2   --> B_2  D_4  S_4  
     e( 30 - 30) =     41.77335  eV     1   --> A_1  D_1  S_1  
     e( 31 - 31) =     43.50622  eV     1   --> A_1  D_1  S_1  
     e( 32 - 32) =     44.53341  eV     1   --> A_1  D_1  S_1  

 **************************************************************************

 **************************************************************************

                    xk=(  -0.28333,   0.00000,   0.00000  )

     Band symmetry, C_2v (mm2)  point group:

     e(  1 -  1) =     -7.51502  eV     1   --> A_1  D_1  S_1  
     e(  2 -  2) =      3.09017  eV     1   --> A_1  D_1  S_1  
     e(  3 -  4) =      4.47293  eV     2   --> B_1  D_3  S_3  
     e(  3 -  4) =      4.47293  eV     2   --> B_2  D_4  S_4  
     e(  5 -  5) =      8.11915  eV     1   --> A_1  D_1  S_1  
     e(  6 -  6) =      8.56278  eV     1   --> A_1  D_1  S_1  
     e(  7 -  8) =     10.45515  eV     2   --> B_1  D_3  S_3  
     e(  7 -  8) =     10.45515  eV     2   --> B_2  D_4  S_4  
     e(  9 -  9) =     13.21234  eV     1   --> A_1  D_1  S_1  
     e( 10 - 10) =     14.83288  eV     1   --> A_1  D_1  S_1  
     e( 11 - 11) =     16.08570  eV     1   --> A_2  D_2  S_2  
     e( 12 - 13) =     17.94070  eV     2   --> B_1  D_3  S_3  
     e( 12 - 13) =     17.94070  eV     2   --> B_2  D_4  S_4  
     e( 14 - 14) =     18.70477  eV     1   --> A_1  D_1  S_1  
     e( 15 - 15) =     23.17512  eV     1   --> A_1  D_1  S_1  
     e( 16 - 17) =     27.63833  eV     2   --> B_1  D_3  S_3  
     e( 16 - 17) =     27.63833  eV     2   --> B_2  D_4  S_4  
     e( 18 - 18) =     29.01862  eV     1   --> A_1  D_1  S_1  
     e( 19 - 19) =     29.25218  eV     1   --> A_2  D_2  S_2  
     e( 20 - 20) =     32.69505  eV     1   --> A_1  D_1  S_1  
     e( 21 - 22) =     33.39141  eV     2   --> B_1  D_3  S_3  
     e( 21 - 22) =     33.39141  eV     2   --> B_2  D_4  S_4  
     e( 23 - 23) =     35.55775  eV     1   --> A_1  D_1  S_1  
     e( 24 - 25) =     38.40603  eV     2   --> B_1  D_3  S_3  
     e( 24 - 25) =     38.40603  eV     2   --> B_2  D_4  S_4  
     e( 26 - 26) =     39.44851  eV     1   --> A_2  D_2  S_2  
     e( 27 - 27) =     40.22780  eV     1   --> A_1  D_1  S_1  
     e( 28 - 29) =     40.55616  eV     2   --> B_1  D_3  S_3  
     e( 28 - 29) =     40.55616  eV     2   --> B_2  D_4  S_4  
     e( 30 - 30) =     41.47186  eV     1   --> A_1  D_1  S_1  
     e( 31 - 31) =     43.33297  eV     1   --> A_1  D_1  S_1  
     e( 32 - 32) =     44.56436  eV     1   --> A_1  D_1  S_1  

 **************************************************************************

 **************************************************************************

                    xk=(  -0.30000,   0.00000,   0.00000  )

     Band symmetry, C_2v (mm2)  point group:

     e(  1 -  1) =     -7.47819  eV     1   --> A_1  D_1  S_1  
     e(  2 -  2) =      2.93833  eV     1   --> A_1  D_1  S_1  
     e(  3 -  4) =      4.39674  eV     2   --> B_1  D_3  S_3  
     e(  3 -  4) =      4.39674  eV     2   --> B_2  D_4  S_4  
     e(  5 -  5) =      8.07591  eV     1   --> A_1  D_1  S_1  
     e(  6 -  6) =      8.63595  eV     1   --> A_1  D_1  S_1  
     e(  7 -  8) =     10.58144  eV     2   --> B_1  D_3  S_3  
     e(  7 -  8) =     10.58144  eV     2   --> B_2  D_4  S_4  
     e(  9 -  9) =     13.09690  eV     1   --> A_1  D_1  S_1  
     e( 10 - 10) =     14.99604  eV     1   --> A_1  D_1  S_1  
     e( 11 - 11) =     16.12894  eV     1   --> A_2  D_2  S_2  
     e( 12 - 13) =     18.02793  eV     2   --> B_1  D_3  S_3  
     e( 12 - 13) =     18.02793  eV     2   --> B_2  D_4  S_4  
     e( 14 - 14) =     18.78996  eV     1   --> A_1  D_1  S_1  
     e( 15 - 15) =     23.47619  eV     1   --> A_1  D_1  S_1  
     e( 16 - 17) =     27.37455  eV     2   --> B_1  D_3  S_3  
     e( 16 - 17) =     27.37455  eV     2   --> B_2  D_4  S_4  
     e( 18 - 18) =     28.80504  eV     1   --> A_1  D_1  S_1  
     e( 19 - 19) =     28.99288  eV     1   --> A_2  D_2  S_2  
     e( 20 - 20) =     32.73602  eV     1   --> A_1  D_1  S_1  
     e( 21 - 22) =     33.43460  eV     2   --> B_1  D_3  S_3  
     e( 21 - 22) =     33.43460  eV     2   --> B_2  D_4  S_4  
     e( 23 - 23) =     35.63999  eV     1   --> A_1  D_1  S_1  
     e( 24 - 25) =     38.73664  eV     2   --> B_1  D_3  S_3  
     e( 24 - 25) =     38.73664  eV     2   --> B_2  D_4  S_4  
     e( 26 - 26) =     39.77634  eV     1   --> A_2  D_2  S_2  
     e( 27 - 27) =     39.91756  eV     1   --> A_1  D_1  S_1  
     e( 28 - 29) =     40.19566  eV     2   --> B_1  D_3  S_3  
     e( 28 - 29) =     40.19566  eV     2   --> B_2  D_4  S_4  
     e( 30 - 30) =     41.15887  eV     1   --> A_1  D_1  S_1  
     e( 31 - 31) =     43.16935  eV     1   --> A_1  D_1  S_1  
     e( 32 - 32) =     44.62174  eV     1   --> A_1  D_1  S_1  

 **************************************************************************

 **************************************************************************

                    xk=(  -0.31667,   0.00000,   0.00000  )

     Band symmetry, C_2v (mm2)  point group:

     e(  1 -  1) =     -7.43938  eV     1   --> A_1  D_1  S_1  
     e(  2 -  2) =      2.78692  eV     1   --> A_1  D_1  S_1  
     e(  3 -  4) =      4.32040  eV     2   --> B_1  D_3  S_3  
     e(  3 -  4) =      4.32040  eV     2   --> B_2  D_4  S_4  
     e(  5 -  5) =      8.01750  eV     1   --> A_1  D_1  S_1  
     e(  6 -  6) =      8.71462  eV     1   --> A_1  D_1  S_1  
     e(  7 -  8) =     10.71062  eV     2   --> B_1  D_3  S_3  
     e(  7 -  8) =     10.71062  eV     2   --> B_2  D_4  S_4  
     e(  9 -  9) =     12.99486  eV     1   --> A_1  D_1  S_1  
     e( 10 - 10) =     15.16390  eV     1   --> A_1  D_1  S_1  
     e( 11 - 11) =     16.17463  eV     1   --> A_2  D_2  S_2  
     e( 12 - 13) =     18.12021  eV     2   --> B_1  D_3  S_3  
     e( 12 - 13) =     18.12021  eV     2   --> B_2  D_4  S_4  
     e( 14 - 14) =     18.87681  eV     1   --> A_1  D_1  S_1  
     e( 15 - 15) =     23.78397  eV     1   --> A_1  D_1  S_1  
     e( 16 - 17) =     27.11245  eV     2   --> B_1  D_3  S_3  
     e( 16 - 17) =     27.11245  eV     2   --> B_2  D_4  S_4  
     e( 18 - 18) =     28.59155  eV     1   --> A_1  D_1  S_1  
     e( 19 - 19) =     28.73606  eV     1   --> A_2  D_2  S_2  
     e( 20 - 20) =     32.77939  eV     1   --> A_1  D_1  S_1  
     e( 21 - 22) =     33.47927  eV     2   --> B_1  D_3  S_3  
     e( 21 - 22) =     33.47927  eV     2   --> B_2  D_4  S_4  
     e( 23 - 23) =     35.71166  eV     1   --> A_1  D_1  S_1  
     e( 24 - 25) =     39.06762  eV     2   --> B_1  D_3  S_3  
     e( 24 - 25) =     39.06762  eV     2   --> B_2  D_4  S_4  
     e( 26 - 26) =     39.60175  eV     1   --> A_1  D_1  S_1  
     e( 27 - 28) =     39.83603  eV     2   --> B_1  D_3  S_3  
     e( 27 - 28) =     39.83603  eV     2   --> B_2  D_4  S_4  
     e( 29 - 29) =     40.10384  eV     1   --> A_2  D_2  S_2  
     e( 30 - 30) =     40.83608  eV     1   --> A_1  D_1  S_1  
     e( 31 - 31) =     43.01237  eV     1   --> A_1  D_1  S_1  
     e( 32 - 32) =     44.70103  eV     1   --> A_1  D_1  S_1  

 **************************************************************************

 **************************************************************************

                    xk=(  -0.33333,   0.00000,   0.00000  )

     Band symmetry, C_2v (mm2)  point group:

     e(  1 -  1) =     -7.39861  eV     1   --> A_1  D_1  S_1  
     e(  2 -  2) =      2.63600  eV     1   --> A_1  D_1  S_1  
     e(  3 -  4) =      4.24413  eV     2   --> B_1  D_3  S_3  
     e(  3 -  4) =      4.24413  eV     2   --> B_2  D_4  S_4  
     e(  5 -  5) =      7.95241  eV     1   --> A_1  D_1  S_1  
     e(  6 -  6) =      8.78905  eV     1   --> A_1  D_1  S_1  
     e(  7 -  8) =     10.84240  eV     2   --> B_1  D_3  S_3  
     e(  7 -  8) =     10.84240  eV     2   --> B_2  D_4  S_4  
     e(  9 -  9) =     12.90805  eV     1   --> A_1  D_1  S_1  
     e( 10 - 10) =     15.33588  eV     1   --> A_1  D_1  S_1  
     e( 11 - 11) =     16.22278  eV     1   --> A_2  D_2  S_2  
     e( 12 - 13) =     18.21754  eV     2   --> B_1  D_3  S_3  
     e( 12 - 13) =     18.21754  eV     2   --> B_2  D_4  S_4  
     e( 14 - 14) =     18.96572  eV     1   --> A_1  D_1  S_1  
     e( 15 - 15) =     24.09786  eV     1   --> A_1  D_1  S_1  
     e( 16 - 17) =     26.85210  eV     2   --> B_1  D_3  S_3  
     e( 16 - 17) =     26.85210  eV     2   --> B_2  D_4  S_4  
     e( 18 - 18) =     28.37847  eV     1   --> A_1  D_1  S_1  
     e( 19 - 19) =     28.48175  eV     1   --> A_2  D_2  S_2  
     e( 20 - 20) =     32.82518  eV     1   --> A_1  D_1  S_1  
     e( 21 - 22) =     33.52548  eV     2   --> B_1  D_3  S_3  
     e( 21 - 22) =     33.52548  eV     2   --> B_2  D_4  S_4  
     e( 23 - 23) =     35.77059  eV     1   --> A_1  D_1  S_1  
     e( 24 - 24) =     39.28609  eV     1   --> A_1  D_1  S_1  
     e( 25 - 26) =     39.35655  eV     2   --> B_1  D_3  S_3  
     e( 25 - 26) =     39.35655  eV     2   --> B_2  D_4  S_4  
     e( 27 - 28) =     39.51994  eV     2   --> B_1  D_3  S_3  
     e( 27 - 28) =     39.51994  eV     2   --> B_2  D_4  S_4  
     e( 29 - 29) =     40.43043  eV     1   --> A_2  D_2  S_2  
     e( 30 - 30) =     40.50616  eV     1   --> A_1  D_1  S_1  
     e( 31 - 31) =     42.85976  eV     1   --> A_1  D_1  S_1  
     e( 32 - 32) =     44.61292  eV     1   -->   ?

 **************************************************************************

 **************************************************************************

                    xk=(  -0.35000,   0.00000,   0.00000  )

     Band symmetry, C_2v (mm2)  point group:

     e(  1 -  1) =     -7.35590  eV     1   --> A_1  D_1  S_1  
     e(  2 -  2) =      2.48562  eV     1   --> A_1  D_1  S_1  
     e(  3 -  4) =      4.16817  eV     2   --> B_1  D_3  S_3  
     e(  3 -  4) =      4.16817  eV     2   --> B_2  D_4  S_4  
     e(  5 -  5) =      7.88445  eV     1   --> A_1  D_1  S_1  
     e(  6 -  6) =      8.85419  eV     1   --> A_1  D_1  S_1  
     e(  7 -  8) =     10.97655  eV     2   --> B_1  D_3  S_3  
     e(  7 -  8) =     10.97655  eV     2   --> B_2  D_4  S_4  
     e(  9 -  9) =     12.83817  eV     1   --> A_1  D_1  S_1  
     e( 10 - 10) =     15.51148  eV     1   --> A_1  D_1  S_1  
     e( 11 - 11) =     16.27340  eV     1   --> A_2  D_2  S_2  
     e( 12 - 13) =     18.31992  eV     2   --> B_1  D_3  S_3  
     e( 12 - 13) =     18.31992  eV     2   --> B_2  D_4  S_4  
     e( 14 - 14) =     19.05706  eV     1   --> A_1  D_1  S_1  
     e( 15 - 15) =     24.41736  eV     1   --> A_1  D_1  S_1  
     e( 16 - 17) =     26.59359  eV     2   --> B_1  D_3  S_3  
     e( 16 - 17) =     26.59359  eV     2   --> B_2  D_4  S_4  
     e( 18 - 18) =     28.16610  eV     1   --> A_1  D_1  S_1  
     e( 19 - 19) =     28.22996  eV     1   --> A_2  D_2  S_2  
     e( 20 - 20) =     32.87339  eV     1   --> A_1  D_1  S_1  
     e( 21 - 22) =     33.57325  eV     2   --> B_1  D_3  S_3  
     e( 21 - 22) =     33.57325  eV     2   --> B_2  D_4  S_4  
     e( 23 - 23) =     35.81379  eV     1   --> A_1  D_1  S_1  
     e( 24 - 24) =     38.97558  eV     1   --> A_1  D_1  S_1  
     e( 25 - 26) =     39.08940  eV     2   --> B_1  D_3  S_3  
     e( 25 - 26) =     39.08940  eV     2   --> B_2  D_4  S_4  
     e( 27 - 28) =     39.76160  eV     2   --> B_1  D_3  S_3  
     e( 27 - 28) =     39.76160  eV     2   --> B_2  D_4  S_4  
     e( 29 - 29) =     40.17199  eV     1   --> A_1  D_1  S_1  
     e( 30 - 30) =     40.75536  eV     1   --> A_2  D_2  S_2  
     e( 31 - 31) =     42.71005  eV     1   --> A_1  D_1  S_1  
     e( 32 - 32) =     44.43456  eV     1   -->   ?

 **************************************************************************

 **************************************************************************

                    xk=(  -0.36667,   0.00000,   0.00000  )

     Band symmetry, C_2v (mm2)  point group:

     e(  1 -  1) =     -7.31129  eV     1   --> A_1  D_1  S_1  
     e(  2 -  2) =      2.33584  eV     1   --> A_1  D_1  S_1  
     e(  3 -  4) =      4.09271  eV     2   --> B_1  D_3  S_3  
     e(  3 -  4) =      4.09271  eV     2   --> B_2  D_4  S_4  
     e(  5 -  5) =      7.81546  eV     1   --> A_1  D_1  S_1  
     e(  6 -  6) =      8.90710  eV     1   --> A_1  D_1  S_1  
     e(  7 -  8) =     11.11285  eV     2   --> B_1  D_3  S_3  
     e(  7 -  8) =     11.11285  eV     2   --> B_2  D_4  S_4  
     e(  9 -  9) =     12.78666  eV     1   --> A_1  D_1  S_1  
     e( 10 - 10) =     15.69028  eV     1   --> A_1  D_1  S_1  
     e( 11 - 11) =     16.32646  eV     1   --> A_2  D_2  S_2  
     e( 12 - 13) =     18.42735  eV     2   --> B_1  D_3  S_3  
     e( 12 - 13) =     18.42735  eV     2   --> B_2  D_4  S_4  
     e( 14 - 14) =     19.15112  eV     1   --> A_1  D_1  S_1  
     e( 15 - 15) =     24.74199  eV     1   --> A_1  D_1  S_1  
     e( 16 - 17) =     26.33698  eV     2   --> B_1  D_3  S_3  
     e( 16 - 17) =     26.33698  eV     2   --> B_2  D_4  S_4  
     e( 18 - 18) =     27.95473  eV     1   --> A_1  D_1  S_1  
     e( 19 - 19) =     27.98070  eV     1   --> A_2  D_2  S_2  
     e( 20 - 20) =     32.92407  eV     1   --> A_1  D_1  S_1  
     e( 21 - 22) =     33.62259  eV     2   --> B_1  D_3  S_3  
     e( 21 - 22) =     33.62259  eV     2   --> B_2  D_4  S_4  
     e( 23 - 23) =     35.83721  eV     1   --> A_1  D_1  S_1  
     e( 24 - 24) =     38.67505  eV     1   --> A_1  D_1  S_1  
     e( 25 - 26) =     38.72874  eV     2   --> B_1  D_3  S_3  
     e( 25 - 26) =     38.72874  eV     2   --> B_2  D_4  S_4  
     e( 27 - 27) =     39.83657  eV     1   --> A_1  D_1  S_1  
     e( 28 - 29) =     40.09862  eV     2   --> B_1  D_3  S_3  
     e( 28 - 29) =     40.09862  eV     2   --> B_2  D_4  S_4  
     e( 30 - 30) =     41.07764  eV     1   --> A_2  D_2  S_2  
     e( 31 - 31) =     42.56246  eV     1   --> A_1  D_1  S_1  
     e( 32 - 32) =     44.25869  eV     1   -->   ?

 **************************************************************************

 **************************************************************************

                    xk=(  -0.38333,   0.00000,   0.00000  )

     Band symmetry, C_2v (mm2)  point group:

     e(  1 -  1) =     -7.26479  eV     1   --> A_1  D_1  S_1  
     e(  2 -  2) =      2.18669  eV     1   --> A_1  D_1  S_1  
     e(  3 -  4) =      4.01794  eV     2   --> B_1  D_3  S_3  
     e(  3 -  4) =      4.01794  eV     2   --> B_2  D_4  S_4  
     e(  5 -  5) =      7.74648  eV     1   --> A_1  D_1  S_1  
     e(  6 -  6) =      8.94591  eV     1   --> A_1  D_1  S_1  
     e(  7 -  8) =     11.25109  eV     2   --> B_1  D_3  S_3  
     e(  7 -  8) =     11.25109  eV     2   --> B_2  D_4  S_4  
     e(  9 -  9) =     12.75466  eV     1   --> A_1  D_1  S_1  
     e( 10 - 10) =     15.87189  eV     1   --> A_1  D_1  S_1  
     e( 11 - 11) =     16.38198  eV     1   --> A_2  D_2  S_2  
     e( 12 - 13) =     18.53982  eV     2   --> B_1  D_3  S_3  
     e( 12 - 13) =     18.53982  eV     2   --> B_2  D_4  S_4  
     e( 14 - 14) =     19.24818  eV     1   --> A_1  D_1  S_1  
     e( 15 - 15) =     25.07133  eV     1   --> A_1  D_1  S_1  
     e( 16 - 17) =     26.08234  eV     2   --> B_1  D_3  S_3  
     e( 16 - 17) =     26.08234  eV     2   --> B_2  D_4  S_4  
     e( 18 - 18) =     27.73399  eV     1   --> A_2  D_2  S_2  
     e( 19 - 19) =     27.74466  eV     1   --> A_1  D_1  S_1  
     e( 20 - 20) =     32.97721  eV     1   --> A_1  D_1  S_1  
     e( 21 - 22) =     33.67347  eV     2   --> B_1  D_3  S_3  
     e( 21 - 22) =     33.67347  eV     2   --> B_2  D_4  S_4  
     e( 23 - 23) =     35.83550  eV     1   --> A_1  D_1  S_1  
     e( 24 - 25) =     38.36506  eV     2   --> B_1  D_3  S_3  
     e( 24 - 25) =     38.36506  eV     2   --> B_2  D_4  S_4  
     e( 26 - 26) =     38.38936  eV     1   --> A_1  D_1  S_1  
     e( 27 - 27) =     39.50323  eV     1   --> A_1  D_1  S_1  
     e( 28 - 29) =     40.44059  eV     2   --> B_1  D_3  S_3  
     e( 28 - 29) =     40.44059  eV     2   --> B_2  D_4  S_4  
     e( 30 - 30) =     41.39597  eV     1   --> A_2  D_2  S_2  
     e( 31 - 31) =     42.41663  eV     1   --> A_1  D_1  S_1  
     e( 32 - 32) =     44.08534  eV     1   -->   ?

 **************************************************************************

 **************************************************************************

                    xk=(  -0.40000,   0.00000,   0.00000  )

     Band symmetry, C_2v (mm2)  point group:

     e(  1 -  1) =     -7.21646  eV     1   --> A_1  D_1  S_1  
     e(  2 -  2) =      2.03824  eV     1   --> A_1  D_1  S_1  
     e(  3 -  4) =      3.94402  eV     2   --> B_1  D_3  S_3  
     e(  3 -  4) =      3.94402  eV     2   --> B_2  D_4  S_4  
     e(  5 -  5) =      7.67813  eV     1   --> A_1  D_1  S_1  
     e(  6 -  6) =      8.96953  eV     1   --> A_1  D_1  S_1  
     e(  7 -  8) =     11.39111  eV     2   --> B_1  D_3  S_3  
     e(  7 -  8) =     11.39111  eV     2   --> B_2  D_4  S_4  
     e(  9 -  9) =     12.74282  eV     1   --> A_1  D_1  S_1  
     e( 10 - 10) =     16.05596  eV     1   --> A_1  D_1  S_1  
     e( 11 - 11) =     16.43995  eV     1   --> A_2  D_2  S_2  
     e( 12 - 13) =     18.65733  eV     2   --> B_1  D_3  S_3  
     e( 12 - 13) =     18.65733  eV     2   --> B_2  D_4  S_4  
     e( 14 - 14) =     19.34848  eV     1   --> A_1  D_1  S_1  
     e( 15 - 15) =     25.40501  eV     1   --> A_1  D_1  S_1  
     e( 16 - 17) =     25.82973  eV     2   --> B_1  D_3  S_3  
     e( 16 - 17) =     25.82973  eV     2   --> B_2  D_4  S_4  
     e( 18 - 18) =     27.48985  eV     1   --> A_2  D_2  S_2  
     e( 19 - 19) =     27.53619  eV     1   --> A_1  D_1  S_1  
     e( 20 - 20) =     33.03285  eV     1   --> A_1  D_1  S_1  
     e( 21 - 22) =     33.72583  eV     2   --> B_1  D_3  S_3  
     e( 21 - 22) =     33.72583  eV     2   --> B_2  D_4  S_4  
     e( 23 - 23) =     35.80215  eV     1   --> A_1  D_1  S_1  
     e( 24 - 25) =     38.00114  eV     2   --> B_1  D_3  S_3  
     e( 24 - 25) =     38.00114  eV     2   --> B_2  D_4  S_4  
     e( 26 - 26) =     38.12289  eV     1   --> A_1  D_1  S_1  
     e( 27 - 27) =     39.17624  eV     1   --> A_1  D_1  S_1  
     e( 28 - 29) =     40.78473  eV     2   --> B_1  D_3  S_3  
     e( 28 - 29) =     40.78473  eV     2   --> B_2  D_4  S_4  
     e( 30 - 30) =     41.70860  eV     1   --> A_2  D_2  S_2  
     e( 31 - 31) =     42.27251  eV     1   --> A_1  D_1  S_1  
     e( 32 - 32) =     43.91461  eV     1   -->   ?

 **************************************************************************

 **************************************************************************

                    xk=(  -0.41667,   0.00000,   0.00000  )

     Band symmetry, C_2v (mm2)  point group:

     e(  1 -  1) =     -7.16631  eV     1   --> A_1  D_1  S_1  
     e(  2 -  2) =      1.89052  eV     1   --> A_1  D_1  S_1  
     e(  3 -  4) =      3.87109  eV     2   --> B_1  D_3  S_3  
     e(  3 -  4) =      3.87109  eV     2   --> B_2  D_4  S_4  
     e(  5 -  5) =      7.61082  eV     1   --> A_1  D_1  S_1  
     e(  6 -  6) =      8.97762  eV     1   --> A_1  D_1  S_1  
     e(  7 -  8) =     11.53273  eV     2   --> B_1  D_3  S_3  
     e(  7 -  8) =     11.53273  eV     2   --> B_2  D_4  S_4  
     e(  9 -  9) =     12.75127  eV     1   --> A_1  D_1  S_1  
     e( 10 - 10) =     16.24212  eV     1   --> A_1  D_1  S_1  
     e( 11 - 11) =     16.50036  eV     1   --> A_2  D_2  S_2  
     e( 12 - 13) =     18.77985  eV     2   --> B_1  D_3  S_3  
     e( 12 - 13) =     18.77985  eV     2   --> B_2  D_4  S_4  
     e( 14 - 14) =     19.45224  eV     1   --> A_1  D_1  S_1  
     e( 15 - 16) =     25.57920  eV     2   --> B_1  D_3  S_3  
     e( 15 - 16) =     25.57920  eV     2   --> B_2  D_4  S_4  
     e( 17 - 17) =     25.74263  eV     1   --> A_1  D_1  S_1  
     e( 18 - 18) =     27.24828  eV     1   --> A_2  D_2  S_2  
     e( 19 - 19) =     27.32967  eV     1   --> A_1  D_1  S_1  
     e( 20 - 20) =     33.09102  eV     1   --> A_1  D_1  S_1  
     e( 21 - 22) =     33.77956  eV     2   --> B_1  D_3  S_3  
     e( 21 - 22) =     33.77956  eV     2   --> B_2  D_4  S_4  
     e( 23 - 23) =     35.73033  eV     1   --> A_1  D_1  S_1  
     e( 24 - 25) =     37.63781  eV     2   --> B_1  D_3  S_3  
     e( 24 - 25) =     37.63781  eV     2   --> B_2  D_4  S_4  
     e( 26 - 26) =     37.87783  eV     1   --> A_1  D_1  S_1  
     e( 27 - 27) =     38.86186  eV     1   --> A_1  D_1  S_1  
     e( 28 - 29) =     41.13003  eV     2   --> B_1  D_3  S_3  
     e( 28 - 29) =     41.13003  eV     2   --> B_2  D_4  S_4  
     e( 30 - 30) =     42.01317  eV     1   --> A_2  D_2  S_2  
     e( 31 - 31) =     42.13023  eV     1   --> A_1  D_1  S_1  
     e( 32 - 32) =     43.74681  eV     1   -->   ?

 **************************************************************************

 **************************************************************************

                    xk=(  -0.43333,   0.00000,   0.00000  )

     Band symmetry, C_2v (mm2)  point group:

     e(  1 -  1) =     -7.11440  eV     1   --> A_1  D_1  S_1  
     e(  2 -  2) =      1.74358  eV     1   --> A_1  D_1  S_1  
     e(  3 -  4) =      3.79928  eV     2   --> B_1  D_3  S_3  
     e(  3 -  4) =      3.79928  eV     2   --> B_2  D_4  S_4  
     e(  5 -  5) =      7.54487  eV     1   --> A_1  D_1  S_1  
     e(  6 -  6) =      8.97044  eV     1   --> A_1  D_1  S_1  
     e(  7 -  8) =     11.67581  eV     2   --> B_1  D_3  S_3  
     e(  7 -  8) =     11.67581  eV     2   --> B_2  D_4  S_4  
     e(  9 -  9) =     12.77959  eV     1   --> A_1  D_1  S_1  
     e( 10 - 10) =     16.43000  eV     1   --> A_1  D_1  S_1  
     e( 11 - 11) =     16.56321  eV     1   --> A_2  D_2  S_2  
     e( 12 - 13) =     18.90737  eV     2   --> B_1  D_3  S_3  
     e( 12 - 13) =     18.90737  eV     2   --> B_2  D_4  S_4  
     e( 14 - 14) =     19.55967  eV     1   --> A_1  D_1  S_1  
     e( 15 - 16) =     25.33082  eV     2   --> B_1  D_3  S_3  
     e( 15 - 16) =     25.33082  eV     2   --> B_2  D_4  S_4  
     e( 17 - 17) =     26.08376  eV     1   --> A_1  D_1  S_1  
     e( 18 - 18) =     27.00930  eV     1   --> A_2  D_2  S_2  
     e( 19 - 19) =     27.12551  eV     1   --> A_1  D_1  S_1  
     e( 20 - 20) =     33.15174  eV     1   --> A_1  D_1  S_1  
     e( 21 - 22) =     33.83450  eV     2   --> B_1  D_3  S_3  
     e( 21 - 22) =     33.83450  eV     2   --> B_2  D_4  S_4  
     e( 23 - 23) =     35.61475  eV     1   --> A_1  D_1  S_1  
     e( 24 - 25) =     37.27558  eV     2   --> B_1  D_3  S_3  
     e( 24 - 25) =     37.27558  eV     2   --> B_2  D_4  S_4  
     e( 26 - 26) =     37.65072  eV     1   --> A_1  D_1  S_1  
     e( 27 - 27) =     38.57004  eV     1   --> A_1  D_1  S_1  
     e( 28 - 29) =     41.47543  eV     2   --> B_1  D_3  S_3  
     e( 28 - 29) =     41.47543  eV     2   --> B_2  D_4  S_4  
     e( 30 - 30) =     41.99003  eV     1   --> A_1  D_1  S_1  
     e( 31 - 31) =     42.30648  eV     1   --> A_2  D_2  S_2  
     e( 32 - 32) =     43.58262  eV     1   -->   ?

 **************************************************************************

 **************************************************************************

                    xk=(  -0.45000,   0.00000,   0.00000  )

     Band symmetry, C_2v (mm2)  point group:

     e(  1 -  1) =     -7.06076  eV     1   --> A_1  D_1  S_1  
     e(  2 -  2) =      1.59749  eV     1   --> A_1  D_1  S_1  
     e(  3 -  4) =      3.72872  eV     2   --> B_1  D_3  S_3  
     e(  3 -  4) =      3.72872  eV     2   --> B_2  D_4  S_4  
     e(  5 -  5) =      7.48049  eV     1   --> A_1  D_1  S_1  
     e(  6 -  6) =      8.94885  eV     1   --> A_1  D_1  S_1  
     e(  7 -  8) =     11.82021  eV     2   --> B_1  D_3  S_3  
     e(  7 -  8) =     11.82021  eV     2   --> B_2  D_4  S_4  
     e(  9 -  9) =     12.82682  eV     1   --> A_1  D_1  S_1  
     e( 10 - 10) =     16.61922  eV     1   --> A_1  D_1  S_1  
     e( 11 - 11) =     16.62849  eV     1   --> A_2  D_2  S_2  
     e( 12 - 13) =     19.03986  eV     2   --> B_1  D_3  S_3  
     e( 12 - 13) =     19.03986  eV     2   --> B_2  D_4  S_4  
     e( 14 - 14) =     19.67095  eV     1   --> A_1  D_1  S_1  
     e( 15 - 16) =     25.08462  eV     2   --> B_1  D_3  S_3  
     e( 15 - 16) =     25.08462  eV     2   --> B_2  D_4  S_4  
     e( 17 - 17) =     26.42745  eV     1   --> A_1  D_1  S_1  
     e( 18 - 18) =     26.77292  eV     1   --> A_2  D_2  S_2  
     e( 19 - 19) =     26.92466  eV     1   --> A_1  D_1  S_1  
     e( 20 - 20) =     33.21503  eV     1   --> A_1  D_1  S_1  
     e( 21 - 22) =     33.89041  eV     2   --> B_1  D_3  S_3  
     e( 21 - 22) =     33.89041  eV     2   --> B_2  D_4  S_4  
     e( 23 - 23) =     35.45404  eV     1   --> A_1  D_1  S_1  
     e( 24 - 25) =     36.91498  eV     2   --> B_1  D_3  S_3  
     e( 24 - 25) =     36.91498  eV     2   --> B_2  D_4  S_4  
     e( 26 - 26) =     37.42907  eV     1   --> A_1  D_1  S_1  
     e( 27 - 27) =     38.31559  eV     1   --> A_1  D_1  S_1  
     e( 28 - 29) =     41.81896  eV     2   --> B_1  D_3  S_3  
     e( 28 - 29) =     41.81896  eV     2   --> B_2  D_4  S_4  
     e( 30 - 30) =     41.85227  eV     1   --> A_1  D_1  S_1  
     e( 31 - 31) =     42.58426  eV     1   --> A_2  D_2  S_2  
     e( 32 - 32) =     43.42370  eV     1   -->   ?

 **************************************************************************

 **************************************************************************

                    xk=(  -0.46667,   0.00000,   0.00000  )

     Band symmetry, C_2v (mm2)  point group:

     e(  1 -  1) =     -7.00544  eV     1   --> A_1  D_1  S_1  
     e(  2 -  2) =      1.45229  eV     1   --> A_1  D_1  S_1  
     e(  3 -  4) =      3.65951  eV     2   --> B_1  D_3  S_3  
     e(  3 -  4) =      3.65951  eV     2   --> B_2  D_4  S_4  
     e(  5 -  5) =      7.41787  eV     1   --> A_1  D_1  S_1  
     e(  6 -  6) =      8.91411  eV     1   --> A_1  D_1  S_1  
     e(  7 -  8) =     11.96581  eV     2   --> B_1  D_3  S_3  
     e(  7 -  8) =     11.96581  eV     2   --> B_2  D_4  S_4  
     e(  9 -  9) =     12.89158  eV     1   --> A_1  D_1  S_1  
     e( 10 - 10) =     16.69621  eV     1   --> A_2  D_2  S_2  
     e( 11 - 11) =     16.80938  eV     1   --> A_1  D_1  S_1  
     e( 12 - 13) =     19.17729  eV     2   --> B_1  D_3  S_3  
     e( 12 - 13) =     19.17729  eV     2   --> B_2  D_4  S_4  
     e( 14 - 14) =     19.78626  eV     1   --> A_1  D_1  S_1  
     e( 15 - 16) =     24.84069  eV     2   --> B_1  D_3  S_3  
     e( 15 - 16) =     24.84069  eV     2   --> B_2  D_4  S_4  
     e( 17 - 17) =     26.53915  eV     1   --> A_2  D_2  S_2  
     e( 18 - 18) =     26.70744  eV     1   --> A_1  D_1  S_1  
     e( 19 - 19) =     26.79340  eV     1   --> A_1  D_1  S_1  
     e( 20 - 20) =     33.28092  eV     1   --> A_1  D_1  S_1  
     e( 21 - 22) =     33.94687  eV     2   --> B_1  D_3  S_3  
     e( 21 - 22) =     33.94687  eV     2   --> B_2  D_4  S_4  
     e( 23 - 23) =     35.25163  eV     1   --> A_1  D_1  S_1  
     e( 24 - 25) =     36.55658  eV     2   --> B_1  D_3  S_3  
     e( 24 - 25) =     36.55658  eV     2   --> B_2  D_4  S_4  
     e( 26 - 26) =     37.19375  eV     1   --> A_1  D_1  S_1  
     e( 27 - 27) =     38.11488  eV     1   --> A_1  D_1  S_1  
     e( 28 - 28) =     41.71736  eV     1   --> A_1  D_1  S_1  
     e( 29 - 30) =     42.15559  eV     2   --> B_1  D_3  S_3  
     e( 29 - 30) =     42.15559  eV     2   --> B_2  D_4  S_4  
     e( 31 - 31) =     42.84097  eV     1   --> A_2  D_2  S_2  
     e( 32 - 32) =     43.27481  eV     1   -->   ?

 **************************************************************************

 **************************************************************************

                    xk=(  -0.48333,   0.00000,   0.00000  )

     Band symmetry, C_2v (mm2)  point group:

     e(  1 -  1) =     -6.94849  eV     1   --> A_1  D_1  S_1  
     e(  2 -  2) =      1.30804  eV     1   --> A_1  D_1  S_1  
     e(  3 -  4) =      3.59174  eV     2   --> B_1  D_3  S_3  
     e(  3 -  4) =      3.59174  eV     2   --> B_2  D_4  S_4  
     e(  5 -  5) =      7.35714  eV     1   --> A_1  D_1  S_1  
     e(  6 -  6) =      8.86779  eV     1   --> A_1  D_1  S_1  
     e(  7 -  8) =     12.11249  eV     2   --> B_1  D_3  S_3  
     e(  7 -  8) =     12.11249  eV     2   --> B_2  D_4  S_4  
     e(  9 -  9) =     12.97224  eV     1   --> A_1  D_1  S_1  
     e( 10 - 10) =     16.76634  eV     1   --> A_2  D_2  S_2  
     e( 11 - 11) =     17.00006  eV     1   --> A_1  D_1  S_1  
     e( 12 - 13) =     19.31963  eV     2   --> B_1  D_3  S_3  
     e( 12 - 13) =     19.31963  eV     2   --> B_2  D_4  S_4  
     e( 14 - 14) =     19.90576  eV     1   --> A_1  D_1  S_1  
     e( 15 - 16) =     24.59908  eV     2   --> B_1  D_3  S_3  
     e( 15 - 16) =     24.59908  eV     2   --> B_2  D_4  S_4  
     e( 17 - 17) =     26.30801  eV     1   --> A_2  D_2  S_2  
     e( 18 - 18) =     26.52547  eV     1   --> A_1  D_1  S_1  
     e( 19 - 19) =     27.13007  eV     1   --> A_1  D_1  S_1  
     e( 20 - 20) =     33.34939  eV     1   --> A_1  D_1  S_1  
     e( 21 - 22) =     34.00319  eV     2   --> B_1  D_3  S_3  
     e( 21 - 22) =     34.00319  eV     2   --> B_2  D_4  S_4  
     e( 23 - 23) =     35.01451  eV     1   --> A_1  D_1  S_1  
     e( 24 - 25) =     36.20125  eV     2   --> B_1  D_3  S_3  
     e( 24 - 25) =     36.20125  eV     2   --> B_2  D_4  S_4  
     e( 26 - 26) =     36.93113  eV     1   --> A_1  D_1  S_1  
     e( 27 - 27) =     37.97511  eV     1   --> A_1  D_1  S_1  
     e( 28 - 28) =     41.58580  eV     1   --> A_1  D_1  S_1  
     e( 29 - 30) =     42.46696  eV     2   --> B_1  D_3  S_3  
     e( 29 - 30) =     42.46696  eV     2   --> B_2  D_4  S_4  
     e( 31 - 31) =     43.06999  eV     1   --> A_2  D_2  S_2  
     e( 32 - 32) =     43.15399  eV     1   -->   ?

 **************************************************************************

 **************************************************************************

                    xk=(  -0.50000,   0.00000,   0.00000  )

     Band symmetry, C_2v (mm2)  point group:

     e(  1 -  1) =     -6.88998  eV     1   --> A_1  D_1  S_1  
     e(  2 -  2) =      1.16481  eV     1   --> A_1  D_1  S_1  
     e(  3 -  4) =      3.52551  eV     2   --> B_1  D_3  S_3  
     e(  3 -  4) =      3.52551  eV     2   --> B_2  D_4  S_4  
     e(  5 -  5) =      7.29845  eV     1   --> A_1  D_1  S_1  
     e(  6 -  6) =      8.81157  eV     1   --> A_1  D_1  S_1  
     e(  7 -  8) =     12.26015  eV     2   --> B_1  D_3  S_3  
     e(  7 -  8) =     12.26015  eV     2   --> B_2  D_4  S_4  
     e(  9 -  9) =     13.06704  eV     1   --> A_1  D_1  S_1  
     e( 10 - 10) =     16.83889  eV     1   --> A_2  D_2  S_2  
     e( 11 - 11) =     17.19077  eV     1   --> A_1  D_1  S_1  
     e( 12 - 13) =     19.46682  eV     2   --> B_1  D_3  S_3  
     e( 12 - 13) =     19.46682  eV     2   --> B_2  D_4  S_4  
     e( 14 - 14) =     20.02961  eV     1   --> A_1  D_1  S_1  
     e( 15 - 16) =     24.35986  eV     2   --> B_1  D_3  S_3  
     e( 15 - 16) =     24.35986  eV     2   --> B_2  D_4  S_4  
     e( 17 - 17) =     26.07952  eV     1   --> A_2  D_2  S_2  
     e( 18 - 18) =     26.33406  eV     1   --> A_1  D_1  S_1  
     e( 19 - 19) =     27.48217  eV     1   --> A_1  D_1  S_1  
     e( 20 - 20) =     33.42039  eV     1   --> A_1  D_1  S_1  
     e( 21 - 22) =     34.05806  eV     2   --> B_1  D_3  S_3  
     e( 21 - 22) =     34.05806  eV     2   --> B_2  D_4  S_4  
     e( 23 - 23) =     34.75083  eV     1   --> A_1  D_1  S_1  
     e( 24 - 25) =     35.85040  eV     2   --> B_1  D_3  S_3  
     e( 24 - 25) =     35.85040  eV     2   --> B_2  D_4  S_4  
     e( 26 - 26) =     36.64132  eV     1   --> A_1  D_1  S_1  
     e( 27 - 27) =     37.88850  eV     1   --> A_1  D_1  S_1  
     e( 28 - 28) =     41.45814  eV     1   --> A_1  D_1  S_1  
     e( 29 - 30) =     42.66630  eV     2   --> B_1  D_3  S_3  
     e( 29 - 30) =     42.66630  eV     2   --> B_2  D_4  S_4  
     e( 31 - 32) =     43.14767  eV     2   --> B_1  D_3  S_3  
     e( 31 - 32) =     43.14767  eV     2   --> B_2  D_4  S_4  

 **************************************************************************

 **************************************************************************

                    xk=(  -0.51667,   0.00000,   0.00000  )

     Band symmetry, C_2v (mm2)  point group:

     e(  1 -  1) =     -6.82996  eV     1   --> A_1  D_1  S_1  
     e(  2 -  2) =      1.02268  eV     1   --> A_1  D_1  S_1  
     e(  3 -  4) =      3.46089  eV     2   --> B_1  D_3  S_3  
     e(  3 -  4) =      3.46089  eV     2   --> B_2  D_4  S_4  
     e(  5 -  5) =      7.24187  eV     1   --> A_1  D_1  S_1  
     e(  6 -  6) =      8.74713  eV     1   --> A_1  D_1  S_1  
     e(  7 -  8) =     12.40868  eV     2   --> B_1  D_3  S_3  
     e(  7 -  8) =     12.40868  eV     2   --> B_2  D_4  S_4  
     e(  9 -  9) =     13.17421  eV     1   --> A_1  D_1  S_1  
     e( 10 - 10) =     16.91384  eV     1   --> A_2  D_2  S_2  
     e( 11 - 11) =     17.38101  eV     1   --> A_1  D_1  S_1  
     e( 12 - 13) =     19.61881  eV     2   --> B_1  D_3  S_3  
     e( 12 - 13) =     19.61881  eV     2   --> B_2  D_4  S_4  
     e( 14 - 14) =     20.15796  eV     1   --> A_1  D_1  S_1  
     e( 15 - 16) =     24.12312  eV     2   --> B_1  D_3  S_3  
     e( 15 - 16) =     24.12312  eV     2   --> B_2  D_4  S_4  
     e( 17 - 17) =     25.85369  eV     1   --> A_2  D_2  S_2  
     e( 18 - 18) =     26.14620  eV     1   --> A_1  D_1  S_1  
     e( 19 - 19) =     27.83680  eV     1   --> A_1  D_1  S_1  
     e( 20 - 20) =     33.49364  eV     1   --> A_1  D_1  S_1  
     e( 21 - 22) =     34.10874  eV     2   --> B_1  D_3  S_3  
     e( 21 - 22) =     34.10874  eV     2   --> B_2  D_4  S_4  
     e( 23 - 23) =     34.46814  eV     1   --> A_1  D_1  S_1  
     e( 24 - 25) =     35.50687  eV     2   --> B_1  D_3  S_3  
     e( 24 - 25) =     35.50687  eV     2   --> B_2  D_4  S_4  
     e( 26 - 26) =     36.33218  eV     1   --> A_1  D_1  S_1  
     e( 27 - 27) =     37.84017  eV     1   --> A_1  D_1  S_1  
     e( 28 - 28) =     41.33501  eV     1   --> A_1  D_1  S_1  
     e( 29 - 30) =     42.64093  eV     2   --> B_1  D_3  S_3  
     e( 29 - 30) =     42.64093  eV     2   --> B_2  D_4  S_4  
     e( 31 - 32) =     43.36805  eV     2   --> B_1  D_3  S_3  
     e( 31 - 32) =     43.36805  eV     2   --> B_2  D_4  S_4  

 **************************************************************************

 **************************************************************************

                    xk=(  -0.53333,   0.00000,   0.00000  )

     Band symmetry, C_2v (mm2)  point group:

     e(  1 -  1) =     -6.76850  eV     1   --> A_1  D_1  S_1  
     e(  2 -  2) =      0.88171  eV     1   --> A_1  D_1  S_1  
     e(  3 -  4) =      3.39796  eV     2   --> B_1  D_3  S_3  
     e(  3 -  4) =      3.39796  eV     2   --> B_2  D_4  S_4  
     e(  5 -  5) =      7.18752  eV     1   --> A_1  D_1  S_1  
     e(  6 -  6) =      8.67608  eV     1   --> A_1  D_1  S_1  
     e(  7 -  8) =     12.55800  eV     2   --> B_1  D_3  S_3  
     e(  7 -  8) =     12.55800  eV     2   --> B_2  D_4  S_4  
     e(  9 -  9) =     13.29207  eV     1   --> A_1  D_1  S_1  
     e( 10 - 10) =     16.99118  eV     1   --> A_2  D_2  S_2  
     e( 11 - 11) =     17.57021  eV     1   --> A_1  D_1  S_1  
     e( 12 - 13) =     19.77549  eV     2   --> B_1  D_3  S_3  
     e( 12 - 13) =     19.77549  eV     2   --> B_2  D_4  S_4  
     e( 14 - 14) =     20.29094  eV     1   --> A_1  D_1  S_1  
     e( 15 - 16) =     23.88897  eV     2   --> B_1  D_3  S_3  
     e( 15 - 16) =     23.88897  eV     2   --> B_2  D_4  S_4  
     e( 17 - 17) =     25.63053  eV     1   --> A_2  D_2  S_2  
     e( 18 - 18) =     25.96285  eV     1   --> A_1  D_1  S_1  
     e( 19 - 19) =     28.19306  eV     1   --> A_1  D_1  S_1  
     e( 20 - 20) =     33.56809  eV     1   --> A_1  D_1  S_1  
     e( 21 - 22) =     34.14850  eV     2   --> B_1  D_3  S_3  
     e( 21 - 22) =     34.14850  eV     2   --> B_2  D_4  S_4  
     e( 23 - 23) =     34.17328  eV     1   --> A_1  D_1  S_1  
     e( 24 - 25) =     35.17746  eV     2   --> B_1  D_3  S_3  
     e( 24 - 25) =     35.17746  eV     2   --> B_2  D_4  S_4  
     e( 26 - 26) =     36.01155  eV     1   --> A_1  D_1  S_1  
     e( 27 - 27) =     37.81671  eV     1   --> A_1  D_1  S_1  
     e( 28 - 28) =     41.21714  eV     1   --> A_1  D_1  S_1  
     e( 29 - 30) =     42.52010  eV     2   --> B_1  D_3  S_3  
     e( 29 - 30) =     42.52010  eV     2   --> B_2  D_4  S_4  
     e( 31 - 31) =     43.53305  eV     1   --> A_2  D_2  S_2  
     e( 32 - 32) =     43.68511  eV     1   -->   ?

 **************************************************************************

 **************************************************************************

                    xk=(  -0.55000,   0.00000,   0.00000  )

     Band symmetry, C_2v (mm2)  point group:

     e(  1 -  1) =     -6.70568  eV     1   --> A_1  D_1  S_1  
     e(  2 -  2) =      0.74200  eV     1   --> A_1  D_1  S_1  
     e(  3 -  4) =      3.33679  eV     2   --> B_1  D_3  S_3  
     e(  3 -  4) =      3.33679  eV     2   --> B_2  D_4  S_4  
     e(  5 -  5) =      7.13546  eV     1   --> A_1  D_1  S_1  
     e(  6 -  6) =      8.59987  eV     1   --> A_1  D_1  S_1  
     e(  7 -  8) =     12.70801  eV     2   --> B_1  D_3  S_3  
     e(  7 -  8) =     12.70801  eV     2   --> B_2  D_4  S_4  
     e(  9 -  9) =     13.41905  eV     1   --> A_1  D_1  S_1  
     e( 10 - 10) =     17.07090  eV     1   --> A_2  D_2  S_2  
     e( 11 - 11) =     17.75772  eV     1   --> A_1  D_1  S_1  
     e( 12 - 13) =     19.93677  eV     2   --> B_1  D_3  S_3  
     e( 12 - 13) =     19.93677  eV     2   --> B_2  D_4  S_4  
[...]
     e( 16 - 16) =     24.53034  eV     1   --> A'             
     e( 17 - 17) =     26.26000  eV     1   --> A'             
     e( 18 - 18) =     27.36353  eV     1   --> A''            
     e( 19 - 19) =     27.68860  eV     1   --> A'             
     e( 20 - 20) =     28.87873  eV     1   --> A'             
     e( 21 - 21) =     29.17744  eV     1   --> A''            
     e( 22 - 22) =     30.24858  eV     1   --> A'             
     e( 23 - 23) =     31.47822  eV     1   --> A'             
     e( 24 - 24) =     33.46512  eV     1   --> A'             
     e( 25 - 25) =     34.09800  eV     1   --> A''            
     e( 26 - 26) =     35.69827  eV     1   --> A''            
     e( 27 - 27) =     36.45699  eV     1   --> A'             
     e( 28 - 28) =     36.96646  eV     1   --> A'             
     e( 29 - 29) =     39.79498  eV     1   --> A'             
     e( 30 - 30) =     40.27040  eV     1   --> A''            
     e( 31 - 31) =     41.47429  eV     1   --> A'             
     e( 32 - 32) =     42.09816  eV     1   --> A''            

 **************************************************************************

 **************************************************************************

                    xk=(  -0.72083,   0.72083,   0.05833  )

     Band symmetry, C_s (m)     point group:

     e(  1 -  1) =     -5.34149  eV     1   --> A'             
     e(  2 -  2) =     -1.49312  eV     1   --> A'             
     e(  3 -  3) =      1.13929  eV     1   --> A'             
     e(  4 -  4) =      3.05062  eV     1   --> A''            
     e(  5 -  5) =      7.38131  eV     1   --> A'             
     e(  6 -  6) =     10.74010  eV     1   --> A'             
     e(  7 -  7) =     13.09274  eV     1   --> A'             
     e(  8 -  8) =     13.36020  eV     1   --> A''            
     e(  9 -  9) =     14.31167  eV     1   --> A'             
     e( 10 - 10) =     15.95098  eV     1   --> A''            
     e( 11 - 11) =     20.09861  eV     1   --> A'             
     e( 12 - 12) =     20.92033  eV     1   --> A'             
     e( 13 - 13) =     22.48996  eV     1   --> A''            
     e( 14 - 14) =     22.74476  eV     1   --> A'             
     e( 15 - 15) =     24.36754  eV     1   --> A''            
     e( 16 - 16) =     24.46880  eV     1   --> A'             
     e( 17 - 17) =     26.34105  eV     1   --> A'             
     e( 18 - 18) =     27.38609  eV     1   --> A''            
     e( 19 - 19) =     27.70050  eV     1   --> A'             
     e( 20 - 20) =     28.81263  eV     1   --> A'             
     e( 21 - 21) =     28.99993  eV     1   --> A''            
     e( 22 - 22) =     30.26832  eV     1   --> A'             
     e( 23 - 23) =     31.50964  eV     1   --> A'             
     e( 24 - 24) =     33.24941  eV     1   --> A'             
     e( 25 - 25) =     34.22081  eV     1   --> A''            
     e( 26 - 26) =     35.72029  eV     1   --> A''            
     e( 27 - 27) =     36.54948  eV     1   --> A'             
     e( 28 - 28) =     37.02879  eV     1   --> A'             
     e( 29 - 29) =     39.95848  eV     1   --> A'             
     e( 30 - 30) =     40.25805  eV     1   --> A''            
     e( 31 - 31) =     41.46647  eV     1   --> A'             
     e( 32 - 32) =     42.08765  eV     1   --> A''            

 **************************************************************************

 **************************************************************************

                    xk=(  -0.72500,   0.72500,   0.05000  )

     Band symmetry, C_s (m)     point group:

     e(  1 -  1) =     -5.32858  eV     1   --> A'             
     e(  2 -  2) =     -1.50322  eV     1   --> A'             
     e(  3 -  3) =      1.13515  eV     1   --> A'             
     e(  4 -  4) =      3.03196  eV     1   --> A''            
     e(  5 -  5) =      7.36111  eV     1   --> A'             
     e(  6 -  6) =     10.66037  eV     1   --> A'             
     e(  7 -  7) =     13.20199  eV     1   --> A'             
     e(  8 -  8) =     13.43584  eV     1   --> A''            
     e(  9 -  9) =     14.28658  eV     1   --> A'             
     e( 10 - 10) =     15.96390  eV     1   --> A''            
     e( 11 - 11) =     20.17900  eV     1   --> A'             
     e( 12 - 12) =     20.99436  eV     1   --> A'             
     e( 13 - 13) =     22.53254  eV     1   --> A''            
     e( 14 - 14) =     22.68007  eV     1   --> A'             
     e( 15 - 15) =     24.22756  eV     1   --> A''            
     e( 16 - 16) =     24.40344  eV     1   --> A'             
     e( 17 - 17) =     26.42285  eV     1   --> A'             
     e( 18 - 18) =     27.41178  eV     1   --> A''            
     e( 19 - 19) =     27.71027  eV     1   --> A'             
     e( 20 - 20) =     28.74791  eV     1   --> A'             
     e( 21 - 21) =     28.82445  eV     1   --> A''            
     e( 22 - 22) =     30.29651  eV     1   --> A'             
     e( 23 - 23) =     31.54279  eV     1   --> A'             
     e( 24 - 24) =     33.04013  eV     1   --> A'             
     e( 25 - 25) =     34.34395  eV     1   --> A''            
     e( 26 - 26) =     35.74226  eV     1   --> A''            
     e( 27 - 27) =     36.63252  eV     1   --> A'             
     e( 28 - 28) =     37.09868  eV     1   --> A'             
     e( 29 - 29) =     40.12257  eV     1   --> A'             
     e( 30 - 30) =     40.24387  eV     1   --> A''            
     e( 31 - 31) =     41.45207  eV     1   --> A'             
     e( 32 - 32) =     42.08231  eV     1   --> A''            

 **************************************************************************

 **************************************************************************

                    xk=(  -0.72917,   0.72917,   0.04167  )

     Band symmetry, C_s (m)     point group:

     e(  1 -  1) =     -5.31665  eV     1   --> A'             
     e(  2 -  2) =     -1.51336  eV     1   --> A'             
     e(  3 -  3) =      1.13416  eV     1   --> A'             
     e(  4 -  4) =      3.01394  eV     1   --> A''            
     e(  5 -  5) =      7.34168  eV     1   --> A'             
     e(  6 -  6) =     10.57944  eV     1   --> A'             
     e(  7 -  7) =     13.31020  eV     1   --> A'             
     e(  8 -  8) =     13.50824  eV     1   --> A''            
     e(  9 -  9) =     14.26553  eV     1   --> A'             
     e( 10 - 10) =     15.98182  eV     1   --> A''            
     e( 11 - 11) =     20.23906  eV     1   --> A'             
     e( 12 - 12) =     21.08025  eV     1   --> A'             
     e( 13 - 13) =     22.56690  eV     1   --> A''            
     e( 14 - 14) =     22.61970  eV     1   --> A'             
     e( 15 - 15) =     24.09476  eV     1   --> A''            
     e( 16 - 16) =     24.33641  eV     1   --> A'             
     e( 17 - 17) =     26.50239  eV     1   --> A'             
     e( 18 - 18) =     27.43999  eV     1   --> A''            
     e( 19 - 19) =     27.71632  eV     1   --> A'             
     e( 20 - 20) =     28.65158  eV     1   --> A''            
     e( 21 - 21) =     28.68934  eV     1   --> A'             
     e( 22 - 22) =     30.33077  eV     1   --> A'             
     e( 23 - 23) =     31.57545  eV     1   --> A'             
     e( 24 - 24) =     32.84002  eV     1   --> A'             
     e( 25 - 25) =     34.46722  eV     1   --> A''            
     e( 26 - 26) =     35.76428  eV     1   --> A''            
     e( 27 - 27) =     36.70391  eV     1   --> A'             
     e( 28 - 28) =     37.17823  eV     1   --> A'             
     e( 29 - 29) =     40.22814  eV     1   --> A''            
     e( 30 - 30) =     40.28604  eV     1   --> A'             
     e( 31 - 31) =     41.43014  eV     1   --> A'             
     e( 32 - 32) =     42.08196  eV     1   --> A''            

 **************************************************************************

 **************************************************************************

                    xk=(  -0.73333,   0.73333,   0.03333  )

     Band symmetry, C_s (m)     point group:

     e(  1 -  1) =     -5.30580  eV     1   --> A'             
     e(  2 -  2) =     -1.52338  eV     1   --> A'             
     e(  3 -  3) =      1.13624  eV     1   --> A'             
     e(  4 -  4) =      2.99658  eV     1   --> A''            
     e(  5 -  5) =      7.32303  eV     1   --> A'             
     e(  6 -  6) =     10.49778  eV     1   --> A'             
     e(  7 -  7) =     13.41512  eV     1   --> A'             
     e(  8 -  8) =     13.57705  eV     1   --> A''            
     e(  9 -  9) =     14.25030  eV     1   --> A'             
     e( 10 - 10) =     16.00509  eV     1   --> A''            
     e( 11 - 11) =     20.27928  eV     1   --> A'             
     e( 12 - 12) =     21.17513  eV     1   --> A'             
     e( 13 - 13) =     22.56566  eV     1   --> A'             
     e( 14 - 14) =     22.59079  eV     1   --> A''            
     e( 15 - 15) =     23.97143  eV     1   --> A''            
     e( 16 - 16) =     24.26945  eV     1   --> A'             
     e( 17 - 17) =     26.57645  eV     1   --> A'             
     e( 18 - 18) =     27.46969  eV     1   --> A''            
     e( 19 - 19) =     27.71769  eV     1   --> A'             
     e( 20 - 20) =     28.48235  eV     1   --> A''            
     e( 21 - 21) =     28.64131  eV     1   --> A'             
     e( 22 - 22) =     30.36874  eV     1   --> A'             
     e( 23 - 23) =     31.60399  eV     1   --> A'             
     e( 24 - 24) =     32.65358  eV     1   --> A'             
     e( 25 - 25) =     34.59032  eV     1   --> A''            
     e( 26 - 26) =     35.78654  eV     1   --> A''            
     e( 27 - 27) =     36.76272  eV     1   --> A'             
     e( 28 - 28) =     37.26827  eV     1   --> A'             
     e( 29 - 29) =     40.21117  eV     1   --> A''            
     e( 30 - 30) =     40.44702  eV     1   --> A'             
     e( 31 - 31) =     41.39915  eV     1   --> A'             
     e( 32 - 32) =     42.08638  eV     1   --> A''            

 **************************************************************************

 **************************************************************************

                    xk=(  -0.73750,   0.73750,   0.02500  )

     Band symmetry, C_s (m)     point group:

     e(  1 -  1) =     -5.29610  eV     1   --> A'             
     e(  2 -  2) =     -1.53307  eV     1   --> A'             
     e(  3 -  3) =      1.14128  eV     1   --> A'             
     e(  4 -  4) =      2.97989  eV     1   --> A''            
     e(  5 -  5) =      7.30520  eV     1   --> A'             
     e(  6 -  6) =     10.41573  eV     1   --> A'             
     e(  7 -  7) =     13.51359  eV     1   --> A'             
     e(  8 -  8) =     13.64192  eV     1   --> A''            
     e(  9 -  9) =     14.24368  eV     1   --> A'             
     e( 10 - 10) =     16.03399  eV     1   --> A''            
     e( 11 - 11) =     20.30178  eV     1   --> A'             
     e( 12 - 12) =     21.27337  eV     1   --> A'             
     e( 13 - 13) =     22.52112  eV     1   --> A'             
     e( 14 - 14) =     22.60139  eV     1   --> A''            
     e( 15 - 15) =     23.86045  eV     1   --> A''            
     e( 16 - 16) =     24.20391  eV     1   --> A'             
     e( 17 - 17) =     26.64131  eV     1   --> A'             
     e( 18 - 18) =     27.49884  eV     1   --> A''            
     e( 19 - 19) =     27.71489  eV     1   --> A'             
     e( 20 - 20) =     28.31878  eV     1   --> A''            
     e( 21 - 21) =     28.60716  eV     1   --> A'             
     e( 22 - 22) =     30.40786  eV     1   --> A'             
     e( 23 - 23) =     31.62218  eV     1   --> A'             
     e( 24 - 24) =     32.48849  eV     1   --> A'             
     e( 25 - 25) =     34.71287  eV     1   --> A''            
     e( 26 - 26) =     35.80932  eV     1   --> A''            
     e( 27 - 27) =     36.80948  eV     1   --> A'             
     e( 28 - 28) =     37.36814  eV     1   --> A'             
     e( 29 - 29) =     40.19331  eV     1   --> A''            
     e( 30 - 30) =     40.60225  eV     1   --> A'             
     e( 31 - 31) =     41.35625  eV     1   --> A'             
     e( 32 - 32) =     42.09530  eV     1   --> A''            

 **************************************************************************

 **************************************************************************

                    xk=(  -0.74167,   0.74167,   0.01667  )

     Band symmetry, C_s (m)     point group:

     e(  1 -  1) =     -5.28763  eV     1   --> A'             
     e(  2 -  2) =     -1.54226  eV     1   --> A'             
     e(  3 -  3) =      1.14917  eV     1   --> A'             
     e(  4 -  4) =      2.96389  eV     1   --> A''            
     e(  5 -  5) =      7.28819  eV     1   --> A'             
     e(  6 -  6) =     10.33358  eV     1   --> A'             
     e(  7 -  7) =     13.60116  eV     1   --> A'             
     e(  8 -  8) =     13.70256  eV     1   --> A''            
     e(  9 -  9) =     14.24978  eV     1   --> A'             
     e( 10 - 10) =     16.06880  eV     1   --> A''            
     e( 11 - 11) =     20.30920  eV     1   --> A'             
     e( 12 - 12) =     21.36729  eV     1   --> A'             
     e( 13 - 13) =     22.49081  eV     1   --> A'             
     e( 14 - 14) =     22.59544  eV     1   --> A''            
     e( 15 - 15) =     23.76511  eV     1   --> A''            
     e( 16 - 16) =     24.14089  eV     1   --> A'             
     e( 17 - 17) =     26.69258  eV     1   --> A'             
     e( 18 - 18) =     27.52306  eV     1   --> A''            
     e( 19 - 19) =     27.71068  eV     1   --> A'             
     e( 20 - 20) =     28.16526  eV     1   --> A''            
     e( 21 - 21) =     28.58857  eV     1   --> A'             
     e( 22 - 22) =     30.44513  eV     1   --> A'             
     e( 23 - 23) =     31.61995  eV     1   --> A'             
     e( 24 - 24) =     32.35709  eV     1   --> A'             
     e( 25 - 25) =     34.83433  eV     1   --> A''            
     e( 26 - 26) =     35.83307  eV     1   --> A''            
     e( 27 - 27) =     36.84561  eV     1   --> A'             
     e( 28 - 28) =     37.47623  eV     1   --> A'             
     e( 29 - 29) =     40.17493  eV     1   --> A''            
     e( 30 - 30) =     40.74534  eV     1   --> A'             
     e( 31 - 31) =     41.29701  eV     1   --> A'             
     e( 32 - 32) =     41.98076  eV     1   --> A'             

 **************************************************************************

 **************************************************************************

                    xk=(  -0.74583,   0.74583,   0.00833  )

     Band symmetry, C_s (m)     point group:

     e(  1 -  1) =     -5.28047  eV     1   --> A'             
     e(  2 -  2) =     -1.55075  eV     1   --> A'             
     e(  3 -  3) =      1.15979  eV     1   --> A'             
     e(  4 -  4) =      2.94858  eV     1   --> A''            
     e(  5 -  5) =      7.27205  eV     1   --> A'             
     e(  6 -  6) =     10.25155  eV     1   --> A'             
     e(  7 -  7) =     13.67240  eV     1   --> A'             
     e(  8 -  8) =     13.75871  eV     1   --> A''            
     e(  9 -  9) =     14.27378  eV     1   --> A'             
     e( 10 - 10) =     16.10972  eV     1   --> A''            
     e( 11 - 11) =     20.30398  eV     1   --> A'             
     e( 12 - 12) =     21.44772  eV     1   --> A'             
     e( 13 - 13) =     22.48114  eV     1   --> A'             
     e( 14 - 14) =     22.56994  eV     1   --> A''            
     e( 15 - 15) =     23.68847  eV     1   --> A''            
     e( 16 - 16) =     24.08127  eV     1   --> A'             
     e( 17 - 17) =     26.72541  eV     1   --> A'             
     e( 18 - 18) =     27.53212  eV     1   --> A''            
     e( 19 - 19) =     27.71006  eV     1   --> A'             
     e( 20 - 20) =     28.03200  eV     1   --> A''            
     e( 21 - 21) =     28.58529  eV     1   --> A'             
     e( 22 - 22) =     30.47658  eV     1   --> A'             
     e( 23 - 23) =     31.58631  eV     1   --> A'             
     e( 24 - 24) =     32.27388  eV     1   --> A'             
     e( 25 - 25) =     34.95391  eV     1   --> A''            
     e( 26 - 26) =     35.85845  eV     1   --> A''            
     e( 27 - 27) =     36.87267  eV     1   --> A'             
     e( 28 - 28) =     37.59080  eV     1   --> A'             
     e( 29 - 29) =     40.15641  eV     1   --> A''            
     e( 30 - 30) =     40.86076  eV     1   --> A'             
     e( 31 - 31) =     41.22091  eV     1   --> A'             
     e( 32 - 32) =     41.86959  eV     1   --> A'             

 **************************************************************************

 **************************************************************************

                    xk=(  -0.75000,   0.75000,   0.00000  )

     Band symmetry, C_s (m)     point group:

     e(  1 -  1) =     -5.27471  eV     1   --> A'             
     e(  2 -  2) =     -1.55836  eV     1   --> A'             
     e(  3 -  3) =      1.17302  eV     1   --> A'             
     e(  4 -  4) =      2.93398  eV     1   --> A''            
     e(  5 -  5) =      7.25677  eV     1   --> A'             
     e(  6 -  6) =     10.16984  eV     1   --> A'             
     e(  7 -  7) =     13.72280  eV     1   --> A'             
     e(  8 -  8) =     13.81019  eV     1   --> A''            
     e(  9 -  9) =     14.31996  eV     1   --> A'             
     e( 10 - 10) =     16.15689  eV     1   --> A''            
     e( 11 - 11) =     20.28803  eV     1   --> A'             
     e( 12 - 12) =     21.50553  eV     1   --> A'             
     e( 13 - 13) =     22.49896  eV     1   --> A'             
     e( 14 - 14) =     22.52309  eV     1   --> A''            
     e( 15 - 15) =     23.63236  eV     1   --> A''            
     e( 16 - 16) =     24.02586  eV     1   --> A'             
     e( 17 - 17) =     26.73549  eV     1   --> A'             
     e( 18 - 18) =     27.50537  eV     1   --> A''            
     e( 19 - 19) =     27.71893  eV     1   --> A'             
     e( 20 - 20) =     27.93964  eV     1   --> A''            
     e( 21 - 21) =     28.59546  eV     1   --> A'             
     e( 22 - 22) =     30.49670  eV     1   --> A'             
     e( 23 - 23) =     31.52121  eV     1   --> A'             
     e( 24 - 24) =     32.24435  eV     1   --> A'             
     e( 25 - 25) =     35.07048  eV     1   --> A''            
     e( 26 - 26) =     35.88652  eV     1   --> A''            
     e( 27 - 27) =     36.89190  eV     1   --> A'             
     e( 28 - 28) =     37.71033  eV     1   --> A'             
     e( 29 - 29) =     40.13810  eV     1   --> A''            
     e( 30 - 30) =     40.90141  eV     1   --> A'             
     e( 31 - 31) =     41.15964  eV     1   --> A'             
     e( 32 - 32) =     41.81859  eV     1   --> A'             

 **************************************************************************
 
     BANDS        :     20.46s CPU     25.47s WALL

 
   This run was terminated on:  10:23:11   1Feb2023            

=------------------------------------------------------------------------------=
   JOB DONE.
=------------------------------------------------------------------------------=
